108
Lattice="9.5433424 0.0 0.0 -4.774267436666 8.265347481157 0.0 0.0008752703243055 -0.004126611853271 15.42106201303" Properties=species:S:1:pos:R:3:dft_forces:R:3 dft_energy=-1672601.390585 dft_stress="-0.0004015838091405 -8.446794268832e-05 0.0001508736982825 -8.982729678932e-05 -0.0004036906592585 -5.627378194784e-05 0.0001470744215838 -7.018629070256e-05 -0.001553047217077" config_type=random system_name=random pbc="T T T"
Ga       1.57388386       0.88105647       2.40693871       0.00021690      -0.00016804       0.00010270
Ga       1.56953626       0.87662858       7.55374307       0.00006143      -0.00002064       0.00005235
Ga       1.55677315       0.88193558      -2.69447457       0.00002836       0.00003395       0.00003793
Al      -0.02634633       3.63296260       2.42219159       0.00024729       0.00017532      -0.00003563
Ga      -0.03499462       3.63295192       7.56378394       0.00001167      -0.00002739       0.00011567
Ga      -0.03762278       3.61964598      -2.71954628      -0.00002779       0.00000506       0.00008829
Al       3.15075821      -1.88158545       2.44617346       0.00044325      -0.00037954       0.00044838
Al       3.14710532      -1.89286192       7.54959309      -0.00021094       0.00002430       0.00007283
Al       3.14674338      -1.88330731      -2.72844743      -0.00000778      -0.00000923       0.00004141
Al      -4.80435674       0.88822078       2.42054097       0.00002600      -0.00040727      -0.00009008
Al      -4.79197675       0.89529325       7.58095090       0.00008259       0.00006438       0.00004245
Al      -4.80019859       0.88730726      -2.73056763       0.00006164       0.00000885       0.00006698
Ga      -6.37582042       3.63048970       2.39690884      -0.00004942       0.00004742       0.00006449
Al      -6.39424907       3.62192282       7.57656267       0.00001337       0.00011895       0.00009642
Ga      -6.38020572       3.62724503      -2.70792886      -0.00001134       0.00000464       0.00009168
Ga      -3.20053987      -1.88193458       2.43456651      -0.00000995       0.00008215      -0.00012553
Ga      -3.20046206      -1.88535307       7.56796491      -0.00001141       0.00004479       0.00009107
Al      -3.20174767      -1.87400809      -2.72162475      -0.00006225       0.00000942       0.00007780
Al      -1.60975487       0.88295463       2.43598081       0.00008418      -0.00024225      -0.00000774
Ga      -1.61930365       0.89080895       7.54480878       0.00011727      -0.00004838       0.00012115
Al      -1.60609949       0.88905690      -2.71134334       0.00005712      -0.00003142       0.00011068
Al      -3.20835588       3.63931923       2.42900622       0.00016383       0.00106325       0.00096708
Al      -3.18486649       3.62322006       7.55093936      -0.00002027      -0.00003776       0.00002221
Ga      -3.20403905       3.63713167      -2.72036723       0.00000658      -0.00005762       0.00017672
Ga      -0.01188877      -1.88716457       2.43259335      -0.00094385       0.00024143      -0.00071222
Ga      -0.01121477      -1.86791908       7.53804973       0.00000747      -0.00002771       0.00008556
Ga      -0.01705215      -1.87548857      -2.69733355      -0.00001607      -0.00004976       0.00000818
Al      -0.02111014       1.79527047       4.99477682      -0.00000268       0.00004189       0.00007927
Ga      -0.01617680       1.80861953      -5.29615626      -0.00003092       0.00008636       0.00009827
Ga      -0.01236262       1.79435643      -0.13984007      -0.00002088       0.00008878       0.00002442
Ga       3.15119668      -3.72419943       4.97427077      -0.00007991       0.00028051      -0.00037845
Ga       3.16193074      -3.72298036      -5.30364220      -0.00000237       0.00006408       0.00008470
Ga       3.14749905      -3.72397514      -0.11775658      -0.00003512       0.00000908       0.00004662
Al       1.56451878      -0.95891975       4.95779221       0.00007309       0.00022694       0.00040310
Ga       1.58176170      -0.94457577      -5.26730567      -0.00009668       0.00008306       0.00009467
Al       1.56044388      -0.94850218      -0.13163457      -0.00018051       0.00013816       0.00008784
Ga       3.16123368       1.78744334       4.97007715      -0.00001622       0.00002564       0.00001749
Al       3.15256290       1.79207675      -5.28456177       0.00001657      -0.00001200       0.00008113
Ga       3.14775659       1.80081850      -0.12436843       0.00008520       0.00000826       0.00011862
Al       6.33576382      -3.71273948       4.96572089       0.00003252       0.00000998       0.00009297
Al       6.32463898      -3.71606191      -5.29484270       0.00001569       0.00000188       0.00012271
Ga       6.34637371      -3.72923771      -0.10920057      -0.00005853      -0.00001032       0.00006264
Ga       4.75121570      -0.95365521       4.96416375      -0.00008273      -0.00008193       0.00001946
Al       4.74823199      -0.95509903      -5.29764103      -0.00005227      -0.00001924       0.00004902
Ga       4.74203196      -0.95028780      -0.10208017      -0.00002274       0.00006691       0.00010641
Al      -3.20368445       1.80664258       4.97292523       0.00007785       0.00000323       0.00024784
Al      -3.20794395       1.81154676      -5.27352582       0.00005789      -0.00004055       0.00008325
Ga      -3.20809914       1.81299183      -0.14545606      -0.00005836       0.00005980      -0.00009915
Al      -0.00270895      -3.71289680       4.97344503       0.00011015      -0.00015922      -0.00001004
Al      -0.00928556      -3.72845482      -5.28603780       0.00003226      -0.00000868       0.00005777
Al      -0.01675270      -3.71465149      -0.13239549       0.00070505      -0.00090526       0.00005575
Al      -1.60702480      -0.95830247       4.96527433      -0.00005235       0.00000872       0.00007453
Ga      -1.62507128      -0.95180799      -5.25892683      -0.00002203       0.00000390       0.00013907
Al      -1.59805775      -0.95712858      -0.13980761      -0.00000534       0.00011840       0.00020590
N        1.56599922       0.83631046       4.31692964      -0.00006768      -0.00001185      -0.00011410
N        1.60945982       0.89821399      -5.95470709       0.00009546      -0.00003205      -0.00013524
N        1.57047078       0.92998402      -0.76826707       0.00003404      -0.00003880      -0.00003359
N       -0.06752963       3.64942158       4.33056424       0.00001313       0.00006408       0.00001654
N       -0.02844717       3.68310502      -5.93317721      -0.00001681       0.00000838      -0.00011928
N       -0.02696990       3.59118512      -0.74140644      -0.00000462      -0.00007105      -0.00006219
N        3.11492322      -1.90609611       4.36499055       0.00025215      -0.00043395      -0.00013981
N        3.19273616      -1.90158442      -5.88147460      -0.00001057       0.00000783      -0.00005870
N        3.16116206      -1.87974888      -0.75763380       0.00004529      -0.00003496      -0.00004252
N       -4.75194269       0.90802973       4.32741178      -0.00010725      -0.00005407      -0.00014058
N       -4.79120028       0.88924922      -5.84573736       0.00004842       0.00002152      -0.00004295
N       -4.84117644       0.90132001      -0.74797345       0.00002570       0.00004850      -0.00011221
N       -6.37824968       3.63158859       4.30584300       0.00004260       0.00007121      -0.00005697
N       -6.42744905       3.61033158      -5.86322275      -0.00004417       0.00002360      -0.00009003
N       -6.34366429       3.60929002      -0.71518756      -0.00007145       0.00000398      -0.00000488
N       -3.15976230      -1.85438108       4.33666145       0.00001370       0.00007935      -0.00009940
N       -3.23855898      -1.89698873      -5.87185609      -0.00001775      -0.00000160      -0.00009154
N       -3.21079153      -1.87942984      -0.75162406      -0.00008169      -0.00001213      -0.00015733
N       -1.65017362       0.86009295       4.41196906       0.00008963      -0.00004916      -0.00002853
N       -1.66149942       0.90407378      -5.89641293       0.00006320      -0.00004409      -0.00014563
N       -1.57367646       0.90802614      -0.78725877       0.00011138      -0.00009211      -0.00011285
N       -3.16301435       3.60921605       4.34384512      -0.00003727       0.00004129      -0.00055054
N       -3.16044188       3.60629829      -5.94312705       0.00002243      -0.00006005      -0.00009148
N       -3.24402202       3.66220461      -0.80352027      -0.00032593       0.00015724       0.00011856
N       -0.02038357      -1.83428331       4.34998215       0.00000471      -0.00005970       0.00012220
N       -0.02116835      -1.86898405      -5.91277097      -0.00001866      -0.00005610      -0.00009543
N       -0.01844566      -1.92779303      -0.78408655      -0.00002120       0.00028742      -0.00015528
N        0.01773907       1.81815038       1.78377950      -0.00019813       0.00011750      -0.00006917
N        0.02266910       1.82206583       6.97906785      -0.00002562       0.00009676      -0.00007498
N       -0.01970825       1.74716460      -3.31324902      -0.00001908       0.00000798      -0.00012347
N        3.15663333      -3.71283043       1.86142982      -0.00031036      -0.00033076      -0.00000406
N        3.16062979      -3.76684216       6.90530798       0.00006228       0.00001375       0.00005037
N        3.11586206      -3.74247757      -3.38529295      -0.00002638       0.00002747      -0.00011744
N        1.56915366      -0.96060123       1.85464422      -0.00019677       0.00037495      -0.00005835
N        1.57299128      -0.90820118       6.88117958      -0.00006265       0.00003684      -0.00012573
N        1.52275538      -0.92576519      -3.28631558      -0.00010216       0.00004606      -0.00001701
N        3.15620362       1.79353653       1.79916761       0.00002314      -0.00007125      -0.00006662
N        3.12074908       1.77180257       6.94352073      -0.00004318      -0.00011145      -0.00012389
N        3.10381789       1.77121389      -3.36928312      -0.00001145      -0.00000257      -0.00008313
N        6.33956121      -3.71356071       1.86886157      -0.00009945      -0.00024942       0.00006688
N        6.29885561      -3.74150272       6.94513356       0.00000022       0.00000048      -0.00006021
N        6.33674910      -3.71961131      -3.38305108       0.00006153      -0.00001409      -0.00010917
N        4.74553618      -0.96047038       1.88316788      -0.00000048       0.00036955       0.00013515
N        4.74909494      -0.95314802       6.93761714       0.00003594       0.00002365      -0.00012297
N        4.74582230      -0.95715155      -3.39261334      -0.00005736       0.00001493      -0.00008516
N       -3.24198582       1.82520248       1.83124848      -0.00003777      -0.00035170      -0.00014494
N       -3.21321370       1.84470139       6.89038652       0.00006795      -0.00001785      -0.00007642
N       -3.16255672       1.82639363      -3.34445641       0.00002843       0.00002202      -0.00013876
N       -0.01061287      -3.70983632       1.80239286      -0.00000490      -0.00008518      -0.00000078
N        0.02096906      -3.74415491       6.95575504       0.00001823       0.00001331      -0.00004254
N        0.01981613      -3.68877241      -3.30458566       0.00001337       0.00002849      -0.00010799
N       -1.60632940      -1.00393946       1.83821598       0.00029030      -0.00021424       0.00019820
N       -1.61566892      -0.96087845       6.87734358      -0.00008207      -0.00002438      -0.00014402
N       -1.56906600      -0.93100160      -3.28014145      -0.00000488       0.00001114      -0.00010668
