108
Lattice="9.5433424 0.0 0.0 -4.774267436666 8.265347481157 0.0 0.0008752703243055 -0.004126611853271 15.42106201303" Properties=species:S:1:pos:R:3:dft_forces:R:3:mace_mp_forces:R:3:forces:R:3 dft_energy=-1672601.390585 dft_stress="-0.0004015838091405 -8.446794268832e-05 0.0001508736982825 -8.982729678932e-05 -0.0004036906592585 -5.627378194784e-05 0.0001470744215838 -7.018629070256e-05 -0.001553047217077" config_type=random system_name=random initial_spacegroup="P1 (1)" final_spacegroup="P1 (1)" model_path=/Users/brunocamino/Desktop/UCL/mace_benchmark/models/fine_tuned/1000/AlGaN-medium-mpa-0.model arch=mace_mp mace_mp_stress="-0.003241042166720576 -0.0033948972031520677 -0.0027514597777872725 -4.066829955597663e-05 -4.836545710115979e-05 -1.1412000852996291e-05" mace_mp_energy=-1672600.6683435317 energy=-1672600.6683435317 free_energy=-1672600.6683435317 stress="-0.003241042166720576 -1.1412000852996291e-05 -4.836545710115979e-05 -1.1412000852996291e-05 -0.0033948972031520677 -4.066829955597663e-05 -4.836545710115979e-05 -4.066829955597663e-05 -0.0027514597777872725" pbc="T T T"
Ga       1.57388386       0.88105647       2.40693871       0.00021690      -0.00016804       0.00010270      -0.00462857       0.00536646       0.00605157      -0.00462857       0.00536646       0.00605157
Ga       1.56953626       0.87662858       7.55374307       0.00006143      -0.00002064       0.00005235      -0.00714749      -0.00101770       0.00165526      -0.00714749      -0.00101770       0.00165526
Ga       1.55677315       0.88193558      -2.69447457       0.00002836       0.00003395       0.00003793       0.00298463       0.00283606       0.00673970       0.00298463       0.00283606       0.00673970
Al      -0.02634633       3.63296260       2.42219159       0.00024729       0.00017532      -0.00003563       0.00337541      -0.00137896       0.00589108       0.00337541      -0.00137896       0.00589108
Ga      -0.03499462       3.63295192       7.56378394       0.00001167      -0.00002739       0.00011567      -0.00165889      -0.00736440      -0.00506697      -0.00165889      -0.00736440      -0.00506697
Ga      -0.03762278       3.61964598      -2.71954628      -0.00002779       0.00000506       0.00008829       0.00291542       0.00007449      -0.00466375       0.00291542       0.00007449      -0.00466375
Al       3.15075821      -1.88158545       2.44617346       0.00044325      -0.00037954       0.00044838       0.00123214       0.00244566      -0.00223102       0.00123214       0.00244566      -0.00223102
Al       3.14710532      -1.89286192       7.54959309      -0.00021094       0.00002430       0.00007283      -0.00110787      -0.00232853      -0.00790482      -0.00110787      -0.00232853      -0.00790482
Al       3.14674338      -1.88330731      -2.72844743      -0.00000778      -0.00000923       0.00004141      -0.00110119       0.00234562      -0.00845475      -0.00110119       0.00234562      -0.00845475
Al      -4.80435674       0.88822078       2.42054097       0.00002600      -0.00040727      -0.00009008       0.00290635       0.00065539      -0.00686205       0.00290635       0.00065539      -0.00686205
Al      -4.79197675       0.89529325       7.58095090       0.00008259       0.00006438       0.00004245       0.00115437       0.00141545      -0.00974781       0.00115437       0.00141545      -0.00974781
Al      -4.80019859       0.88730726      -2.73056763       0.00006164       0.00000885       0.00006698      -0.00431957      -0.00034809      -0.00482175      -0.00431957      -0.00034809      -0.00482175
Ga      -6.37582042       3.63048970       2.39690884      -0.00004942       0.00004742       0.00006449       0.00241003      -0.00259556       0.00280999       0.00241003      -0.00259556       0.00280999
Al      -6.39424907       3.62192282       7.57656267       0.00001337       0.00011895       0.00009642       0.00008225      -0.00284663       0.00224186       0.00008225      -0.00284663       0.00224186
Al      -6.38020572       3.62724503      -2.70792886      -0.00001134       0.00000464       0.00009168      -0.00841670      -0.00188154      -0.00383955      -0.00841670      -0.00188154      -0.00383955
Ga      -3.20053987      -1.88193458       2.43456651      -0.00000995       0.00008215      -0.00012553      -0.00434800       0.00360186      -0.01483459      -0.00434800       0.00360186      -0.01483459
Al      -3.20046206      -1.88535307       7.56796491      -0.00001141       0.00004479       0.00009107       0.00327091       0.00314914      -0.00478265       0.00327091       0.00314914      -0.00478265
Al      -3.20174767      -1.87400809      -2.72162475      -0.00006225       0.00000942       0.00007780       0.00259971      -0.00653808      -0.00777239       0.00259971      -0.00653808      -0.00777239
Al      -1.60975487       0.88295463       2.43598081       0.00008418      -0.00024225      -0.00000774       0.00489539      -0.00095033      -0.00403427       0.00489539      -0.00095033      -0.00403427
Ga      -1.61930365       0.89080895       7.54480878       0.00011727      -0.00004838       0.00012115       0.00447744       0.00156741       0.00035051       0.00447744       0.00156741       0.00035051
Al      -1.60609949       0.88905690      -2.71134334       0.00005712      -0.00003142       0.00011068       0.00589609       0.00224545      -0.00169930       0.00589609       0.00224545      -0.00169930
Al      -3.20835588       3.63931923       2.42900622       0.00016383       0.00106325       0.00096708       0.00157109      -0.00144663       0.00096386       0.00157109      -0.00144663       0.00096386
Ga      -3.18486649       3.62322006       7.55093936      -0.00002027      -0.00003776       0.00002221       0.00500626      -0.00155735       0.00345882       0.00500626      -0.00155735       0.00345882
Ga      -3.20403905       3.63713167      -2.72036723       0.00000658      -0.00005762       0.00017672       0.00536612      -0.00556851      -0.00117213       0.00536612      -0.00556851      -0.00117213
Ga      -0.01188877      -1.88716457       2.43259335      -0.00094385       0.00024143      -0.00071222       0.00035793       0.00206317      -0.00891715       0.00035793       0.00206317      -0.00891715
Ga      -0.01121477      -1.86791908       7.53804973       0.00000747      -0.00002771       0.00008556      -0.00309830       0.00533410      -0.00100773      -0.00309830       0.00533410      -0.00100773
Ga      -0.01705215      -1.87548857      -2.69733355      -0.00001607      -0.00004976       0.00000818       0.00030010      -0.00045270       0.00088029       0.00030010      -0.00045270       0.00088029
Al      -0.02111014       1.79527047       4.99477682      -0.00000268       0.00004189       0.00007927      -0.00232742      -0.00013452      -0.00054534      -0.00232742      -0.00013452      -0.00054534
Ga      -0.01617680       1.80861953      -5.29615626      -0.00003092       0.00008636       0.00009827      -0.00562001       0.00019893      -0.00373528      -0.00562001       0.00019893      -0.00373528
Al      -0.01236262       1.79435643      -0.13984007      -0.00002088       0.00008878       0.00002442       0.00006620       0.00342139       0.00423279       0.00006620       0.00342139       0.00423279
Ga       3.15119668      -3.72419943       4.97427077      -0.00007991       0.00028051      -0.00037845       0.00051923      -0.00561096       0.00652853       0.00051923      -0.00561096       0.00652853
Ga       3.16193074      -3.72298036      -5.30364220      -0.00000237       0.00006408       0.00008470       0.00085608      -0.00114643       0.00506488       0.00085608      -0.00114643       0.00506488
Ga       3.14749905      -3.72397514      -0.11775658      -0.00003512       0.00000908       0.00004662      -0.00043421      -0.00109776       0.00572685      -0.00043421      -0.00109776       0.00572685
Al       1.56451878      -0.95891975       4.95779221       0.00007309       0.00022694       0.00040310       0.00145213      -0.00264092       0.00344400       0.00145213      -0.00264092       0.00344400
Ga       1.58176170      -0.94457577      -5.26730567      -0.00009668       0.00008306       0.00009467       0.00569760      -0.00011574      -0.00400465       0.00569760      -0.00011574      -0.00400465
Al       1.56044388      -0.94850218      -0.13163457      -0.00018051       0.00013816       0.00008784      -0.00512903      -0.00127753       0.00106626      -0.00512903      -0.00127753       0.00106626
Ga       3.16123368       1.78744334       4.97007715      -0.00001622       0.00002564       0.00001749       0.00094815       0.00284014       0.00206668       0.00094815       0.00284014       0.00206668
Ga       3.15256290       1.79207675      -5.28456177       0.00001657      -0.00001200       0.00008113       0.00468755       0.00017738       0.00509643       0.00468755       0.00017738       0.00509643
Ga       3.14775659       1.80081850      -0.12436843       0.00008520       0.00000826       0.00011862      -0.00278587      -0.00006790      -0.00497332      -0.00278587      -0.00006790      -0.00497332
Al       6.33576382      -3.71273948       4.96572089       0.00003252       0.00000998       0.00009297       0.00225353       0.00618683       0.00312921       0.00225353       0.00618683       0.00312921
Ga       6.32463898      -3.71606191      -5.29484270       0.00001569       0.00000188       0.00012271       0.00136796       0.00111752       0.00428470       0.00136796       0.00111752       0.00428470
Ga       6.34637371      -3.72923771      -0.10920057      -0.00005853      -0.00001032       0.00006264      -0.00122961      -0.00410234      -0.00852716      -0.00122961      -0.00410234      -0.00852716
Ga       4.75121570      -0.95365521       4.96416375      -0.00008273      -0.00008193       0.00001946       0.00568783      -0.00480060      -0.00174890       0.00568783      -0.00480060      -0.00174890
Al       4.74823199      -0.95509903      -5.29764103      -0.00005227      -0.00001924       0.00004902      -0.00184822      -0.00524629       0.00103119      -0.00184822      -0.00524629       0.00103119
Ga       4.74203196      -0.95028780      -0.10208017      -0.00002274       0.00006691       0.00010641      -0.00059619      -0.00079170       0.00322041      -0.00059619      -0.00079170       0.00322041
Al      -3.20368445       1.80664258       4.97292523       0.00007785       0.00000323       0.00024784       0.00457132       0.00333887      -0.00211525       0.00457132       0.00333887      -0.00211525
Al      -3.20794395       1.81154676      -5.27352582       0.00005789      -0.00004055       0.00008325       0.00308779      -0.00314179      -0.00315932       0.00308779      -0.00314179      -0.00315932
Ga      -3.20809914       1.81299183      -0.14545606      -0.00005836       0.00005980      -0.00009915       0.00060668       0.00093352       0.00816102       0.00060668       0.00093352       0.00816102
Al      -0.00270895      -3.71289680       4.97344503       0.00011015      -0.00015922      -0.00001004      -0.00200701      -0.00184109      -0.00631447      -0.00200701      -0.00184109      -0.00631447
Al      -0.00928556      -3.72845482      -5.28603780       0.00003226      -0.00000868       0.00005777      -0.00476334      -0.00597330      -0.00410725      -0.00476334      -0.00597330      -0.00410725
Al      -0.01675270      -3.71465149      -0.13239549       0.00070505      -0.00090526       0.00005575       0.00365771      -0.00225160       0.00431996       0.00365771      -0.00225160       0.00431996
Al      -1.60702480      -0.95830247       4.96527433      -0.00005235       0.00000872       0.00007453       0.00242112       0.00592576      -0.00648000       0.00242112       0.00592576      -0.00648000
Ga      -1.62507128      -0.95180799      -5.25892683      -0.00002203       0.00000390       0.00013907      -0.00400394       0.00398305      -0.00592602      -0.00400394       0.00398305      -0.00592602
Al      -1.59805775      -0.95712858      -0.13980761      -0.00000534       0.00011840       0.00020590       0.00460487       0.00213013       0.00138933       0.00460487       0.00213013       0.00138933
N        1.56599922       0.83631046       4.31692964      -0.00006768      -0.00001185      -0.00011410      -0.00767996       0.01164150       0.01656732      -0.00767996       0.01164150       0.01656732
N        1.60945982       0.89821399      -5.95470709       0.00009546      -0.00003205      -0.00013524      -0.02898282      -0.00660766       0.01421014      -0.02898282      -0.00660766       0.01421014
N        1.57047078       0.92998402      -0.76826707       0.00003404      -0.00003880      -0.00003359      -0.01351104      -0.02747313       0.00645691      -0.01351104      -0.02747313       0.00645691
N       -0.06752963       3.64942158       4.33056424       0.00001313       0.00006408       0.00001654       0.02572201      -0.01245763       0.00571723       0.02572201      -0.01245763       0.00571723
N       -0.02844717       3.68310502      -5.93317721      -0.00001681       0.00000838      -0.00011928       0.00274285      -0.02872318       0.00958459       0.00274285      -0.02872318       0.00958459
N       -0.02696990       3.59118512      -0.74140644      -0.00000462      -0.00007105      -0.00006219      -0.00106041       0.00224726      -0.00385292      -0.00106041       0.00224726      -0.00385292
N        3.11492322      -1.90609611       4.36499055       0.00025215      -0.00043395      -0.00013981      -0.00398051       0.01674943      -0.00577320      -0.00398051       0.01674943      -0.00577320
N        3.19273616      -1.90158442      -5.88147460      -0.00001057       0.00000783      -0.00005870       0.00077564       0.01815206      -0.02228225       0.00077564       0.01815206      -0.02228225
N        3.16116206      -1.87974888      -0.75763380       0.00004529      -0.00003496      -0.00004252      -0.01263166       0.00573290      -0.01310399      -0.01263166       0.00573290      -0.01310399
N       -4.75194269       0.90802973       4.32741178      -0.00010725      -0.00005407      -0.00014058      -0.00166421       0.00746884      -0.00248644      -0.00166421       0.00746884      -0.00248644
N       -4.79120028       0.88924922      -5.84573736       0.00004842       0.00002152      -0.00004295       0.01353549      -0.01027983      -0.01561196       0.01353549      -0.01027983      -0.01561196
N       -4.84117644       0.90132001      -0.74797345       0.00002570       0.00004850      -0.00011221       0.01229991      -0.00764333      -0.02199085       0.01229991      -0.00764333      -0.02199085
N       -6.37824968       3.63158859       4.30584300       0.00004260       0.00007121      -0.00005697      -0.00325506       0.00553430       0.01928415      -0.00325506       0.00553430       0.01928415
N       -6.42744905       3.61033158      -5.86322275      -0.00004417       0.00002360      -0.00009003       0.02952234       0.01745574      -0.01926393       0.02952234       0.01745574      -0.01926393
N       -6.34366429       3.60929002      -0.71518756      -0.00007145       0.00000398      -0.00000488      -0.00358165       0.01771889      -0.01826465      -0.00358165       0.01771889      -0.01826465
N       -3.15976230      -1.85438108       4.33666145       0.00001370       0.00007935      -0.00009940      -0.00558223      -0.01969305       0.02790543      -0.00558223      -0.01969305       0.02790543
N       -3.23855898      -1.89698873      -5.87185609      -0.00001775      -0.00000160      -0.00009154      -0.00616509       0.02152803      -0.01158755      -0.00616509       0.02152803      -0.01158755
N       -3.21079153      -1.87942984      -0.75162406      -0.00008169      -0.00001213      -0.00015733       0.01410576       0.00141108      -0.00980348       0.01410576       0.00141108      -0.00980348
N       -1.65017362       0.86009295       4.41196906       0.00008963      -0.00004916      -0.00002853       0.00923899       0.00347121      -0.00355998       0.00923899       0.00347121      -0.00355998
N       -1.66149942       0.90407378      -5.89641293       0.00006320      -0.00004409      -0.00014563       0.00212513      -0.00032087       0.00679435       0.00212513      -0.00032087       0.00679435
N       -1.57367646       0.90802614      -0.78725877       0.00011138      -0.00009211      -0.00011285       0.00446994      -0.01563190       0.00407107       0.00446994      -0.01563190       0.00407107
N       -3.16301435       3.60921605       4.34384512      -0.00003727       0.00004129      -0.00055054      -0.03203108       0.00640200      -0.00632966      -0.03203108       0.00640200      -0.00632966
N       -3.16044188       3.60629829      -5.94312705       0.00002243      -0.00006005      -0.00009148      -0.03281070       0.00491884       0.02036445      -0.03281070       0.00491884       0.02036445
N       -3.24402202       3.66220461      -0.80352027      -0.00032593       0.00015724       0.00011856       0.00546050       0.00176612       0.02081680       0.00546050       0.00176612       0.02081680
N       -0.02038357      -1.83428331       4.34998215       0.00000471      -0.00005970       0.00012220       0.00324169      -0.01722030       0.02654221       0.00324169      -0.01722030       0.02654221
N       -0.02116835      -1.86898405      -5.91277097      -0.00001866      -0.00005610      -0.00009543       0.00111217      -0.01577761       0.00602852       0.00111217      -0.01577761       0.00602852
N       -0.01844566      -1.92779303      -0.78408655      -0.00002120       0.00028742      -0.00015528      -0.00192826       0.02292947       0.03347843      -0.00192826       0.02292947       0.03347843
N        0.01773907       1.81815038       1.78377950      -0.00019813       0.00011750      -0.00006917      -0.02381366       0.00050747       0.00272709      -0.02381366       0.00050747       0.00272709
N        0.02266910       1.82206583       6.97906785      -0.00002562       0.00009676      -0.00007498      -0.01890830      -0.01133323      -0.02245826      -0.01890830      -0.01133323      -0.02245826
N       -0.01970825       1.74716460      -3.31324902      -0.00001908       0.00000798      -0.00012347      -0.01857481       0.00725061      -0.00864541      -0.01857481       0.00725061      -0.00864541
N        3.15663333      -3.71283043       1.86142982      -0.00031036      -0.00033076      -0.00000406       0.00375400       0.00041228      -0.00095917       0.00375400       0.00041228      -0.00095917
N        3.16062979      -3.76684216       6.90530798       0.00006228       0.00001375       0.00005037      -0.00073143       0.04291949       0.01401461      -0.00073143       0.04291949       0.01401461
N        3.11586206      -3.74247757      -3.38529295      -0.00002638       0.00002747      -0.00011744       0.01631203       0.02410254       0.00412975       0.01631203       0.02410254       0.00412975
N        1.56915366      -0.96060123       1.85464422      -0.00019677       0.00037495      -0.00005835       0.02040672      -0.01035081      -0.02026669       0.02040672      -0.01035081      -0.02026669
N        1.57299128      -0.90820118       6.88117958      -0.00006265       0.00003684      -0.00012573       0.01508135      -0.02981070       0.00400409       0.01508135      -0.02981070       0.00400409
N        1.52275538      -0.92576519      -3.28631558      -0.00010216       0.00004606      -0.00001701       0.02971153      -0.01383255      -0.01378106       0.02971153      -0.01383255      -0.01378106
N        3.15620362       1.79353653       1.79916761       0.00002314      -0.00007125      -0.00006662       0.01122784      -0.00939390       0.00914520       0.01122784      -0.00939390       0.00914520
N        3.12074908       1.77180257       6.94352073      -0.00004318      -0.00011145      -0.00012389       0.03518938       0.01844767      -0.00049281       0.03518938       0.01844767      -0.00049281
N        3.10381789       1.77121389      -3.36928312      -0.00001145      -0.00000257      -0.00008313       0.02769148       0.01611873       0.02423550       0.02769148       0.01611873       0.02423550
N        6.33956121      -3.71356071       1.86886157      -0.00009945      -0.00024942       0.00006688      -0.02077648      -0.01173040      -0.01319444      -0.02077648      -0.01173040      -0.01319444
N        6.29885561      -3.74150272       6.94513356       0.00000022       0.00000048      -0.00006021       0.02953581       0.02016187      -0.01061356       0.02953581       0.02016187      -0.01061356
N        6.33674910      -3.71961131      -3.38305108       0.00006153      -0.00001409      -0.00010917       0.00819858       0.00630096       0.03522667       0.00819858       0.00630096       0.03522667
N        4.74553618      -0.96047038       1.88316788      -0.00000048       0.00036955       0.00013515      -0.01636447       0.00560089      -0.00815457      -0.01636447       0.00560089      -0.00815457
N        4.74909494      -0.95314802       6.93761714       0.00003594       0.00002365      -0.00012297       0.00350063      -0.00417987       0.01547943       0.00350063      -0.00417987       0.01547943
N        4.74582230      -0.95715155      -3.39261334      -0.00005736       0.00001493      -0.00008516       0.00027443      -0.00052299       0.02175055       0.00027443      -0.00052299       0.02175055
N       -3.24198582       1.82520248       1.83124848      -0.00003777      -0.00035170      -0.00014494       0.01009553      -0.00316472       0.01276224       0.01009553      -0.00316472       0.01276224
N       -3.21321370       1.84470139       6.89038652       0.00006795      -0.00001785      -0.00007642      -0.01642933      -0.02771525       0.00073383      -0.01642933      -0.02771525       0.00073383
N       -3.16255672       1.82639363      -3.34445641       0.00002843       0.00002202      -0.00013876      -0.00849517      -0.02116897      -0.00321252      -0.00849517      -0.02116897      -0.00321252
N       -0.01061287      -3.70983632       1.80239286      -0.00000490      -0.00008518      -0.00000078       0.01329108      -0.00169308      -0.01013528       0.01329108      -0.00169308      -0.01013528
N        0.02096906      -3.74415491       6.95575504       0.00001823       0.00001331      -0.00004254      -0.03201963       0.00793366      -0.00933095      -0.03201963       0.00793366      -0.00933095
N        0.01981613      -3.68877241      -3.30458566       0.00001337       0.00002849      -0.00010799      -0.02300211      -0.01457013      -0.01915752      -0.02300211      -0.01457013      -0.01915752
N       -1.60632940      -1.00393946       1.83821598       0.00029030      -0.00021424       0.00019820       0.00166248       0.02532381      -0.01245040       0.00166248       0.02532381      -0.01245040
N       -1.61566892      -0.96087845       6.87734358      -0.00008207      -0.00002438      -0.00014402      -0.01150254      -0.01334000       0.00492021      -0.01150254      -0.01334000       0.00492021
N       -1.56906600      -0.93100160      -3.28014145      -0.00000488       0.00001114      -0.00010668      -0.03151869       0.00758910      -0.00054286      -0.03151869       0.00758910      -0.00054286
108
Lattice="9.5433424 0.0 0.0 -4.774267436666 8.265347481157 0.0 0.0008752703243055 -0.004126611853271 15.42106201303" Properties=species:S:1:pos:R:3:dft_forces:R:3:mace_mp_forces:R:3:forces:R:3 dft_energy=-1672601.390585 dft_stress="-0.0004015838091405 -8.446794268832e-05 0.0001508736982825 -8.982729678932e-05 -0.0004036906592585 -5.627378194784e-05 0.0001470744215838 -7.018629070256e-05 -0.001553047217077" config_type=random system_name=random initial_spacegroup="P1 (1)" final_spacegroup="P1 (1)" model_path=/Users/brunocamino/Desktop/UCL/mace_benchmark/models/fine_tuned/1000/AlGaN-medium-mpa-0.model arch=mace_mp mace_mp_stress="-0.0032325885306746308 -0.0033734901379133876 -0.002802635228562987 -4.491552238478483e-05 -4.2557267652330074e-05 2.945456548270468e-05" mace_mp_energy=-1672600.6691732132 energy=-1672600.6691732132 free_energy=-1672600.6691732132 stress="-0.0032325885306746308 2.945456548270468e-05 -4.2557267652330074e-05 2.945456548270468e-05 -0.0033734901379133876 -4.491552238478483e-05 -4.2557267652330074e-05 -4.491552238478483e-05 -0.002802635228562987" pbc="T T T"
Ga       1.57388386       0.88105647       2.40693871       0.00021690      -0.00016804       0.00010270      -0.00523984       0.00585270       0.00786531      -0.00523984       0.00585270       0.00786531
Ga       1.56953626       0.87662858       7.55374307       0.00006143      -0.00002064       0.00005235      -0.00805245      -0.00421648       0.00022038      -0.00805245      -0.00421648       0.00022038
Ga       1.55677315       0.88193558      -2.69447457       0.00002836       0.00003395       0.00003793       0.00504810       0.00280696       0.00458606       0.00504810       0.00280696       0.00458606
Al      -0.02634633       3.63296260       2.42219159       0.00024729       0.00017532      -0.00003563       0.00299029      -0.00116526       0.00829248       0.00299029      -0.00116526       0.00829248
Ga      -0.03499462       3.63295192       7.56378394       0.00001167      -0.00002739       0.00011567      -0.00183282      -0.00791563      -0.00388108      -0.00183282      -0.00791563      -0.00388108
Ga      -0.03762278       3.61964598      -2.71954628      -0.00002779       0.00000506       0.00008829       0.00129061       0.00253690      -0.00749402       0.00129061       0.00253690      -0.00749402
Al       3.15075821      -1.88158545       2.44617346       0.00044325      -0.00037954       0.00044838       0.00097751       0.00337680      -0.00079351       0.00097751       0.00337680      -0.00079351
Al       3.14710532      -1.89286192       7.54959309      -0.00021094       0.00002430       0.00007283      -0.00097464      -0.00194536      -0.00895790      -0.00097464      -0.00194536      -0.00895790
Al       3.14674338      -1.88330731      -2.72844743      -0.00000778      -0.00000923       0.00004141       0.00092156       0.00242406      -0.00533300       0.00092156       0.00242406      -0.00533300
Al      -4.80435674       0.88822078       2.42054097       0.00002600      -0.00040727      -0.00009008       0.00180376      -0.00039769      -0.00610023       0.00180376      -0.00039769      -0.00610023
Al      -4.79197675       0.89529325       7.58095090       0.00008259       0.00006438       0.00004245       0.00076276       0.00076132      -0.01044765       0.00076276       0.00076132      -0.01044765
Al      -4.80019859       0.88730726      -2.73056763       0.00006164       0.00000885       0.00006698      -0.00448150       0.00095807      -0.00373379      -0.00448150       0.00095807      -0.00373379
Ga      -6.37582042       3.63048970       2.39690884      -0.00004942       0.00004742       0.00006449       0.00204923      -0.00201469       0.00330789       0.00204923      -0.00201469       0.00330789
Al      -6.39424907       3.62192282       7.57656267       0.00001337       0.00011895       0.00009642       0.00153220      -0.00428707      -0.00023419       0.00153220      -0.00428707      -0.00023419
Al      -6.38020572       3.62724503      -2.70792886      -0.00001134       0.00000464       0.00009168      -0.00524621      -0.00438911      -0.00487460      -0.00524621      -0.00438911      -0.00487460
Ga      -3.20053987      -1.88193458       2.43456651      -0.00000995       0.00008215      -0.00012553      -0.00486241       0.00278374      -0.01396695      -0.00486241       0.00278374      -0.01396695
Al      -3.20046206      -1.88535307       7.56796491      -0.00001141       0.00004479       0.00009107       0.00401506       0.00446555      -0.00662403       0.00401506       0.00446555      -0.00662403
Al      -3.20174767      -1.87400809      -2.72162475      -0.00006225       0.00000942       0.00007780       0.00042587      -0.00353087      -0.00674611       0.00042587      -0.00353087      -0.00674611
Al      -1.60975487       0.88295463       2.43598081       0.00008418      -0.00024225      -0.00000774       0.00736850       0.00076431      -0.00305913       0.00736850       0.00076431      -0.00305913
Ga      -1.61930365       0.89080895       7.54480878       0.00011727      -0.00004838       0.00012115       0.00422229       0.00125891      -0.00052210       0.00422229       0.00125891      -0.00052210
Al      -1.60609949       0.88905690      -2.71134334       0.00005712      -0.00003142       0.00011068       0.00593310       0.00129163      -0.00192222       0.00593310       0.00129163      -0.00192222
Al      -3.20835588       3.63931923       2.42900622       0.00016383       0.00106325       0.00096708       0.00306328      -0.00155013       0.00054876       0.00306328      -0.00155013       0.00054876
Ga      -3.18486649       3.62322006       7.55093936      -0.00002027      -0.00003776       0.00002221       0.00515414      -0.00023133       0.00172579       0.00515414      -0.00023133       0.00172579
Ga      -3.20403905       3.63713167      -2.72036723       0.00000658      -0.00005762       0.00017672       0.00423965      -0.00670233      -0.00127502       0.00423965      -0.00670233      -0.00127502
Ga      -0.01188877      -1.88716457       2.43259335      -0.00094385       0.00024143      -0.00071222       0.00081554       0.00182511      -0.00902173       0.00081554       0.00182511      -0.00902173
Ga      -0.01121477      -1.86791908       7.53804973       0.00000747      -0.00002771       0.00008556      -0.00195717       0.00528800      -0.00207511      -0.00195717       0.00528800      -0.00207511