1
dft_energy=-5.236806134899E+04 Lattice="1.000000000000e+01 0.000000000000e+00 0.000000000000e+00  0.000000000000e+00 1.000000000000e+00 0.000000000000e+00 0.000000000000e-00  0.000000000000e-00 1.000000000000e+00" dft_stress="0.000000000000e-00  0.000000000000e-00  0.000000000000e-00  0.000000000000e-00  0.000000000000e-00  0.000000000000e-00  0.000000000000e-00  0.000000000000e-00 0.000000000000e-00" Properties=species:S:1:pos:R:3:forces:R:3 config_type=IsolatedAtom        
Ga 0.000000000000e+00 0.000000000000e-00 0.000000000000e+00   0.000000000000e-00 0.000000000000e-00 0.000000000000e-00
