1
dft_energy=-1.483705316803E+03 Lattice="1.000000000000e+01 0.000000000000e+00 0.000000000000e+00  0.000000000000e+00 1.000000000000e+00 0.000000000000e+00 0.000000000000e-00  0.000000000000e-00 1.000000000000e+00" dft_stress="0.000000000000e-00  0.000000000000e-00  0.000000000000e-00  0.000000000000e-00  0.000000000000e-00  0.000000000000e-00  0.000000000000e-00  0.000000000000e-00 0.000000000000e-00" Properties=species:S:1:pos:R:3:forces:R:3 config_type=IsolatedAtom        
N 0.000000000000e+00 0.000000000000e-00 0.000000000000e+00   0.000000000000e-00 0.000000000000e-00 0.000000000000e-00
