108
dft_energy=-1.672601390585e+06 Lattice="9.543342400000e+00 0.000000000000e+00 0.000000000000e+00 -4.774267436666e+00 8.265347481157e+00 0.000000000000e+00 8.752703243055e-04 -4.126611853271e-03 1.542106201303e+01" dft_stress="-4.015838091405e-04 -8.446794268832e-05 1.508736982825e-04 -8.982729678932e-05 -4.036906592585e-04 -5.627378194784e-05 1.470744215838e-04 -7.018629070256e-05 -1.553047217077e-03" Properties=species:S:1:pos:R:3:dft_forces:R:3 config_type=random system_name=random
Al 1.573883855915e+00 8.810564669417e-01 2.406938709597e+00 2.169011542223e-04 -1.680433138866e-04 1.027033126761e-04
Al 1.569536256339e+00 8.766285800078e-01 7.553743070455e+00 6.143308302503e-05 -2.063913519779e-05 5.235347724142e-05
Al 1.556773151521e+00 8.819355820397e-01 -2.694474573778e+00 2.836333696177e-05 3.395228333103e-05 3.792911712353e-05
Al -2.634632901279e-02 3.632962602451e+00 2.422191585034e+00 2.472873734863e-04 1.753217224731e-04 -3.563334449441e-05
Al -3.499462242182e-02 3.632951921331e+00 7.563783936110e+00 1.166558857246e-05 -2.738992397477e-05 1.156745413424e-04
Al -3.762278236952e-02 3.619645984475e+00 -2.719546283405e+00 -2.779119744112e-05 5.064492192730e-06 8.829078618089e-05
Al 3.150758212434e+00 -1.881585446797e+00 2.446173459010e+00 4.432533821568e-04 -3.795383095719e-04 4.483760712581e-04
Al 3.147105324750e+00 -1.892861917675e+00 7.549593087001e+00 -2.109371935024e-04 2.430396878061e-05 7.282574630096e-05
Al 3.146743382870e+00 -1.883307307273e+00 -2.728447431381e+00 -7.784079604889e-06 -9.229029124036e-06 4.140713788026e-05
Al -4.804356742406e+00 8.882207771519e-01 2.420540967512e+00 2.600345445014e-05 -4.072688297247e-04 -9.008275758360e-05
Al -4.791976748602e+00 8.952932513664e-01 7.580950898322e+00 8.259418289835e-05 6.437746850274e-05 4.245359296995e-05
Al -4.800198594850e+00 8.873072647875e-01 -2.730567625338e+00 6.163793957525e-05 8.854794778301e-06 6.698108266567e-05
Al -6.375820423089e+00 3.630489696844e+00 2.396908837182e+00 -4.941791125557e-05 4.742216146814e-05 6.448950237292e-05
Al -6.394249069792e+00 3.621922816003e+00 7.576562671174e+00 1.337347715058e-05 1.189530039483e-04 9.642230580775e-05
Al -6.380205719175e+00 3.627245032130e+00 -2.707928855375e+00 -1.133657252339e-05 4.643130100845e-06 9.168002494775e-05
Al -3.200539870503e+00 -1.881934579728e+00 2.434566505109e+00 -9.949771862472e-06 8.214514184468e-05 -1.255302471614e-04
Al -3.200462055773e+00 -1.885353073600e+00 7.567964909849e+00 -1.141354096390e-05 4.478584058809e-05 9.107361772509e-05
Al -3.201747671233e+00 -1.874008094540e+00 -2.721624748295e+00 -6.225175077823e-05 9.420148723294e-06 7.780103368571e-05
Al -1.609754869400e+00 8.829546254459e-01 2.435980810659e+00 8.417911287673e-05 -2.422545973451e-04 -7.738169298221e-06
Al -1.619303649368e+00 8.908089481514e-01 7.544808775338e+00 1.172703591122e-04 -4.838382878702e-05 1.211518160744e-04
Al -1.606099490669e+00 8.890568972117e-01 -2.711343341072e+00 5.711701901090e-05 -3.142199790940e-05 1.106839267990e-04
Al -3.208355883419e+00 3.639319228360e+00 2.429006216618e+00 1.638273555220e-04 1.063248295819e-03 9.670752254145e-04
Al -3.184866486431e+00 3.623220055018e+00 7.550939363759e+00 -2.027154395989e-05 -3.776272852574e-05 2.221310102168e-05
Al -3.204039054556e+00 3.637131669193e+00 -2.720367229842e+00 6.577446651113e-06 -5.762424766620e-05 1.767169180233e-04
Al -1.188877322321e-02 -1.887164573564e+00 2.432593348887e+00 -9.438469955163e-04 2.414297373101e-04 -7.122228723828e-04
Al -1.121476511568e-02 -1.867919077947e+00 7.538049728334e+00 7.471703073136e-06 -2.770855712098e-05 8.556145823846e-05
Al -1.705215379447e-02 -1.875488567283e+00 -2.697333545733e+00 -1.606670254262e-05 -4.975956521691e-05 8.183946874851e-06
Al -2.111013633855e-02 1.795270473126e+00 4.994776821017e+00 -2.675925784956e-06 4.188625434816e-05 7.926746616604e-05
Al -1.617679628708e-02 1.808619529618e+00 -5.296156258397e+00 -3.092314124775e-05 8.636244581339e-05 9.826905144905e-05
Al -1.236262246491e-02 1.794356428601e+00 -1.398400705160e-01 -2.088466202377e-05 8.878368449849e-05 2.441908619755e-05
Al 3.151196679252e+00 -3.724199433202e+00 4.974270765878e+00 -7.991405789287e-05 2.805149958793e-04 -3.784474977859e-04
Al 3.161930739739e+00 -3.722980359926e+00 -5.303642197339e+00 -2.373594489180e-06 6.407920573182e-05 8.470137773386e-05
Al 3.147499048376e+00 -3.723975144993e+00 -1.177565815652e-01 -3.511745803841e-05 9.084596364062e-06 4.662123120980e-05
Al 1.564518782723e+00 -9.589197542537e-01 4.957792206839e+00 7.308508074766e-05 2.269432561159e-04 4.030962417207e-04
Al 1.581761701503e+00 -9.445757720704e-01 -5.267305671129e+00 -9.667717868211e-05 8.305800648056e-05 9.466535003888e-05
Al 1.560443879143e+00 -9.485021812868e-01 -1.316345685982e-01 -1.805084066024e-04 1.381580938276e-04 8.783720739913e-05
Al 3.161233675096e+00 1.787443335102e+00 4.970077152421e+00 -1.621743657210e-05 2.564066928556e-05 1.748977297922e-05
Al 3.152562903150e+00 1.792076750027e+00 -5.284561767621e+00 1.656902036429e-05 -1.199592486079e-05 8.113274979182e-05
Al 3.147756586802e+00 1.800818497022e+00 -1.243684342338e-01 8.519545225250e-05 8.257988919347e-06 1.186230703940e-04
Al 6.335763818374e+00 -3.712739477030e+00 4.965720892116e+00 3.252391378972e-05 9.979308205343e-06 9.296958286953e-05
Al 6.324638977029e+00 -3.716061913674e+00 -5.294842700332e+00 1.569057637951e-05 1.876036884063e-06 1.227126809629e-04
Al 6.346373714143e+00 -3.729237709710e+00 -1.092005736052e-01 -5.852518479266e-05 -1.032450981597e-05 6.264392394684e-05
Al 4.751215695564e+00 -9.536552118537e-01 4.964163750454e+00 -8.273413152526e-05 -8.193404060242e-05 1.945962896599e-05
Al 4.748231989076e+00 -9.550990255392e-01 -5.297641029720e+00 -5.227145106113e-05 -1.923701658613e-05 4.901877088159e-05
Al 4.742031957535e+00 -9.502877987086e-01 -1.020801729915e-01 -2.274025607818e-05 6.691084192312e-05 1.064099991908e-04
Al -3.203684448054e+00 1.806642580292e+00 4.972925226781e+00 7.784981696268e-05 3.226701854153e-06 2.478362418490e-04
Al -3.207943951058e+00 1.811546760228e+00 -5.273525820251e+00 5.788982346333e-05 -4.055412249748e-05 8.324693831430e-05
Al -3.208099142956e+00 1.812991830084e+00 -1.454560642276e-01 -5.836029107709e-05 5.979699068348e-05 -9.914822020818e-05
Al -2.708952655164e-03 -3.712896800035e+00 4.973445034448e+00 1.101481045716e-04 -1.592207085048e-04 -1.004472427724e-05
Al -9.285562468696e-03 -3.728454816070e+00 -5.286037800433e+00 3.226105134146e-05 -8.675915729839e-06 5.777407407059e-05
Al -1.675270393041e-02 -3.714651486970e+00 -1.323954923222e-01 7.050537027101e-04 -9.052605558937e-04 5.574787219054e-05
Al -1.607024803367e+00 -9.583024713040e-01 4.965274327549e+00 -5.234655586817e-05 8.717909914413e-06 7.453299639693e-05
Al -1.625071277377e+00 -9.518079853148e-01 -5.258926829808e+00 -2.203341945695e-05 3.901074558499e-06 1.390667419585e-04
Al -1.598057749650e+00 -9.571285805120e-01 -1.398076136101e-01 -5.335740553392e-06 1.183994825649e-04 2.059021893679e-04
N 1.565999217843e+00 8.363104601976e-01 4.316929642849e+00 -6.768282475561e-05 -1.185227404576e-05 -1.140988698047e-04
N 1.609459823962e+00 8.982139885827e-01 -5.954707091980e+00 9.546005809913e-05 -3.204777857846e-05 -1.352385669353e-04
N 1.570470779363e+00 9.299840219595e-01 -7.682670676091e-01 3.404337798596e-05 -3.880398259426e-05 -3.358581121127e-05
N -6.752963342296e-02 3.649421578891e+00 4.330564239271e+00 1.312950523857e-05 6.408438068073e-05 1.654221575897e-05
N -2.844716994453e-02 3.683105016531e+00 -5.933177208751e+00 -1.680856666320e-05 8.379892054045e-06 -1.192818839737e-04
N -2.696990293648e-02 3.591185118595e+00 -7.414064393933e-01 -4.623742329068e-06 -7.104844712202e-05 -6.219089855630e-05
N 3.114923223182e+00 -1.906096112912e+00 4.364990548041e+00 2.521521685228e-04 -4.339477095057e-04 -1.398141077820e-04
N 3.192736158657e+00 -1.901584422895e+00 -5.881474597739e+00 -1.056918697806e-05 7.830477399828e-06 -5.869987419693e-05
N 3.161162056430e+00 -1.879748879185e+00 -7.576338012693e-01 4.528855340924e-05 -3.495851062185e-05 -4.252379810943e-05
N -4.751942689997e+00 9.080297343923e-01 4.327411779444e+00 -1.072546958962e-04 -5.406696759502e-05 -1.405800550671e-04
N -4.791200276725e+00 8.892492174248e-01 -5.845737359225e+00 4.842410042616e-05 2.152377482423e-05 -4.295276634370e-05
N -4.841176440078e+00 9.013200093584e-01 -7.479734495500e-01 2.569861770496e-05 4.850244491283e-05 -1.122077035278e-04
N -6.378249684668e+00 3.631588589947e+00 4.305843004631e+00 4.259951605223e-05 7.121046591349e-05 -5.697409271299e-05
N -6.427449047107e+00 3.610331576289e+00 -5.863222745031e+00 -4.417379761179e-05 2.359881465974e-05 -9.003458278034e-05
N -6.343664294454e+00 3.609290021799e+00 -7.151875647625e-01 -7.144683485460e-05 3.980418308736e-06 -4.879346699127e-06
N -3.159762302424e+00 -1.854381077596e+00 4.336661452528e+00 1.369708403853e-05 7.935005669513e-05 -9.939636174039e-05
N -3.238558984306e+00 -1.896988730494e+00 -5.871856089853e+00 -1.775409974591e-05 -1.603616087920e-06 -9.153928017813e-05
N -3.210791525324e+00 -1.879429840275e+00 -7.516240554624e-01 -8.169020210280e-05 -1.213252006238e-05 -1.573310443579e-04
N -1.650173620176e+00 8.600929485944e-01 4.411969055552e+00 8.962976876514e-05 -4.916037783498e-05 -2.852905681405e-05
N -1.661499421894e+00 9.040737820751e-01 -5.896412929695e+00 6.319654661269e-05 -4.409062579214e-05 -1.456268041418e-04
N -1.573676459014e+00 9.080261393690e-01 -7.872587651306e-01 1.113821780079e-04 -9.211402686482e-05 -1.128488057489e-04
N -3.163014351686e+00 3.609216049743e+00 4.343845118506e+00 -3.726701483941e-05 4.129237676831e-05 -5.505359145976e-04
N -3.160441881171e+00 3.606298286446e+00 -5.943127053396e+00 2.242550925846e-05 -6.005232174555e-05 -9.148113926427e-05
N -3.244022020827e+00 3.662204610414e+00 -8.035202681773e-01 -3.259275329839e-04 1.572414081452e-04 1.185639099177e-04
N -2.038357140141e-02 -1.834283307039e+00 4.349982151766e+00 4.705983295494e-06 -5.970375907438e-05 1.221956415769e-04
N -2.116835222549e-02 -1.868984054596e+00 -5.912770967794e+00 -1.865514688171e-05 -5.609696784248e-05 -9.543102740284e-05
N -1.844565732904e-02 -1.927793032273e+00 -7.840865479363e-01 -2.119637095954e-05 2.874213992676e-04 -1.552783452242e-04
N 1.773906657966e-02 1.818150379941e+00 1.783779496469e+00 -1.981336936989e-04 1.175027045650e-04 -6.916779873078e-05
N 2.266910481110e-02 1.822065832717e+00 6.979067845607e+00 -2.561594003758e-05 9.675577422286e-05 -7.497854910143e-05
N -1.970824631072e-02 1.747164600049e+00 -3.313249019655e+00 -1.907659151440e-05 7.979833801741e-06 -1.234711264999e-04
N 3.156633328812e+00 -3.712830428284e+00 1.861429821598e+00 -3.103583239361e-04 -3.307578368333e-04 -4.059979833215e-06
N 3.160629789138e+00 -3.766842160879e+00 6.905307978346e+00 6.227741409393e-05 1.375190473230e-05 5.036781728585e-05
N 3.115862060168e+00 -3.742477568627e+00 -3.385292947219e+00 -2.638164333835e-05 2.746616885929e-05 -1.174428275519e-04
N 1.569153662148e+00 -9.606012292353e-01 1.854644215102e+00 -1.967705045665e-04 3.749469260740e-04 -5.835108597196e-05
N 1.572991276089e+00 -9.082011801476e-01 6.881179582343e+00 -6.265341056366e-05 3.684282362837e-05 -1.257304323836e-04
N 1.522755379601e+00 -9.257651910373e-01 -3.286315576473e+00 -1.021587231191e-04 4.605635119592e-05 -1.700705775765e-05
N 3.156203619246e+00 1.793536532718e+00 1.799167606371e+00 2.313959042377e-05 -7.124515835022e-05 -6.661751379466e-05
N 3.120749082139e+00 1.771802570286e+00 6.943520731081e+00 -4.317709002688e-05 -1.114523943428e-04 -1.238898653375e-04
N 3.103817893196e+00 1.771213892552e+00 -3.369283115709e+00 -1.145313879292e-05 -2.574738863892e-06 -8.312888131590e-05
N 6.339561205036e+00 -3.713560706576e+00 1.868861571082e+00 -9.944942692708e-05 -2.494157979904e-04 6.687614736212e-05
N 6.298855612930e+00 -3.741502724179e+00 6.945133558588e+00 2.244333892065e-07 4.844845369334e-07 -6.021431287112e-05
N 6.336749102525e+00 -3.719611311281e+00 -3.383051076723e+00 6.152831627493e-05 -1.408719718166e-05 -1.091714600845e-04
N 4.745536183011e+00 -9.604703758770e-01 1.883167883903e+00 -4.811325986509e-07 3.695488990778e-04 1.351496479280e-04
N 4.749094942051e+00 -9.531480198801e-01 6.937617143532e+00 3.594290831122e-05 2.364892048906e-05 -1.229666681883e-04
N 4.745822302292e+00 -9.571515475251e-01 -3.392613338458e+00 -5.736263992451e-05 1.493408040654e-05 -8.516332906527e-05
N -3.241985824358e+00 1.825202481516e+00 1.831248477371e+00 -3.776644723974e-05 -3.516982058898e-04 -1.449367525170e-04
N -3.213213702235e+00 1.844701389544e+00 6.890386515616e+00 6.795076566157e-05 -1.784952042350e-05 -7.641788258894e-05
N -3.162556717170e+00 1.826393626097e+00 -3.344456414298e+00 2.843217131510e-05 2.202087869208e-05 -1.387590110542e-04
N -1.061287097927e-02 -3.709836319414e+00 1.802392860434e+00 -4.899252710411e-06 -8.518385930634e-05 -7.771520849076e-07
N 2.096906216257e-02 -3.744154907985e+00 6.955755035876e+00 1.822543419294e-05 1.330672337208e-05 -4.254094562572e-05
N 1.981613472351e-02 -3.688772413075e+00 -3.304585659547e+00 1.337290038794e-05 2.849307998942e-05 -1.079945321338e-04
N -1.606329401173e+00 -1.003939455742e+00 1.838215980787e+00 2.902954560997e-04 -2.142421422091e-04 1.981993087492e-04
N -1.615668923443e+00 -9.608784511544e-01 6.877343579369e+00 -8.207264464610e-05 -2.438292425699e-05 -1.440152177725e-04
N -1.569065995345e+00 -9.310015962257e-01 -3.280141445853e+00 -4.878097776384e-06 1.114132173363e-05 -1.066763246333e-04
