108
dft_energy=-4.824356461714e+05 Lattice="9.476278000000e+00 0.000000000000e+00 0.000000000000e+00 -4.738138933234e+00 8.206697034897e+00 0.000000000000e+00 9.377100946722e-16 1.624161559475e-15 1.531396800000e+01" dft_stress="2.229830601822e-02 4.717906477739e-03 1.813401333334e-05 4.703261648721e-03 2.796640120512e-02 -1.295573564251e-04 1.709252707860e-05 -1.291576735218e-04 3.722888341256e-02" Properties=species:S:1:pos:R:3:dft_forces:R:3 config_type=random system_name=random
Al 1.564294007348e+00 9.031460038403e-01 2.504900000001e+00 -1.149886825162e-03 -1.423317605655e-02 -1.185450865894e-02
Al 1.564294007348e+00 9.031460038403e-01 7.521855000000e+00 -1.215595536057e-03 -1.419968349352e-02 -6.242565949510e-03
Al 1.564294007348e+00 9.031460038402e-01 -2.775158000000e+00 -1.231129751743e-03 -1.417827864840e-02 -6.335547135171e-03
Al 2.938992201960e-08 3.612582015362e+00 2.504900000001e+00 -2.729008766064e-03 -1.185525318662e-03 -1.071216468602e-02
Al 2.938992232680e-08 3.612582015362e+00 7.521855000000e+00 -2.847139566924e-03 -1.235248384821e-03 -4.486412840113e-03
Al 2.938992169629e-08 3.612582015362e+00 -2.775158000000e+00 -2.834470457072e-03 -1.295999206729e-03 -4.751559385883e-03
Al 3.173844984667e+00 -1.884678008014e+00 2.504900000001e+00 -2.953150532539e-03 1.725428304354e-03 -1.201861112107e-02
Al 3.173844984667e+00 -1.884678008014e+00 7.521855000000e+00 -3.020788181420e-03 1.721267617103e-03 -5.597943222875e-03
Al 3.173844984667e+00 -1.884678008014e+00 -2.775158000000e+00 -3.027896184131e-03 1.772301598489e-03 -5.849462230525e-03
Al -4.783395992652e+00 9.031460038403e-01 2.504900000001e+00 1.366935036886e-03 -1.308400053610e-02 -1.053042532868e-02
Al -4.783395992652e+00 9.031460038403e-01 7.521855000000e+00 1.359272007506e-03 -1.297371892696e-02 -5.122032491003e-03
Al -4.783395992652e+00 9.031460038402e-01 -2.775158000000e+00 1.399870589731e-03 -1.293509626165e-02 -5.225335637268e-03
Al -6.347689970610e+00 3.612582015362e+00 2.504900000001e+00 -1.986382277535e-04 9.580423831346e-05 -9.424504240929e-03
Al -6.347689970610e+00 3.612582015362e+00 7.521855000000e+00 -1.593253841330e-04 8.536288341543e-05 -3.347226571881e-03
Al -6.347689970610e+00 3.612582015362e+00 -2.775158000000e+00 -1.461171755825e-04 6.189004472690e-05 -3.587375496609e-03
Al -3.173845015333e+00 -1.884678008014e+00 2.504900000001e+00 -7.399250328510e-04 2.772560046829e-03 -1.074847899339e-02
Al -3.173845015333e+00 -1.884678008014e+00 7.521855000000e+00 -3.651149974987e-04 3.053135195990e-03 -4.444048583555e-03
Al -3.173845015333e+00 -1.884678008014e+00 -2.775158000000e+00 -1.094841427962e-04 3.248479732785e-03 -5.120699626160e-03
Al -1.654807992652e+00 9.031460038403e-01 2.504900000001e+00 1.363690021451e-02 -7.692184990374e-03 -1.180287523259e-02
Al -1.654807992652e+00 9.031460038403e-01 7.521855000000e+00 1.355425647619e-02 -7.789773304380e-03 -6.974340752749e-03
Al -1.654807992652e+00 9.031460038402e-01 -2.775158000000e+00 1.358783402873e-02 -8.129513597738e-03 -7.420668000245e-03
Al -3.219101970610e+00 3.612582015362e+00 2.504900000001e+00 1.197161658650e-02 5.327758102479e-03 -1.047719626572e-02
Al -3.219101970610e+00 3.612582015362e+00 7.521855000000e+00 1.194441988118e-02 5.316998638611e-03 -5.114786083171e-03
Al -3.219101970610e+00 3.612582015362e+00 -2.775158000000e+00 1.189935936741e-02 5.243396891001e-03 -5.300584263418e-03
Al -4.525701533274e-02 -1.884678008014e+00 2.504900000001e+00 1.207154012178e-02 7.900272101220e-03 -1.184984213529e-02
Al -4.525701533274e-02 -1.884678008014e+00 7.521855000000e+00 1.172561045667e-02 8.135286519081e-03 -6.191439956679e-03
Al -4.525701533274e-02 -1.884678008014e+00 -2.775158000000e+00 1.145773388663e-02 8.343996283522e-03 -6.828984183394e-03
Al 1.469567206389e-08 1.806291007681e+00 5.013377999999e+00 -1.171785687219e-02 -8.156814222491e-03 -6.505687259091e-03
Al 1.469567143338e-08 1.806291007681e+00 -5.283634999999e+00 -1.171266295950e-02 -8.185893199626e-03 -6.211051745948e-03
Al 1.469567174058e-08 1.806291007681e+00 -2.666800000000e-01 -1.169630595119e-02 -8.507656593991e-03 3.295736117798e-02
Al 3.173844969971e+00 -3.690969015695e+00 5.013377999999e+00 -1.197536587486e-02 -5.395791667068e-03 -5.378829212749e-03
Al 3.173844969971e+00 -3.690969015695e+00 -5.283634999999e+00 -1.193561997060e-02 -5.328253819723e-03 -5.097617253822e-03
Al 3.173844969971e+00 -3.690969015695e+00 -2.666800000000e-01 -1.199561418548e-02 -5.293144496005e-03 3.402755187878e-02
Al 1.609550992015e+00 -9.815320041739e-01 5.013377999999e+00 -1.354339527635e-02 7.880060054142e-03 -7.226208117319e-03
Al 1.609550992015e+00 -9.815320041739e-01 -5.283634999999e+00 -1.358707598059e-02 7.844643545542e-03 -7.004161561373e-03
Al 1.609550992015e+00 -9.815320041739e-01 -2.666800000000e-01 -1.364728907054e-02 8.108727992078e-03 3.194992236309e-02
Al 3.128588014696e+00 1.806291007681e+00 5.013377999999e+00 3.799517334089e-04 -3.053207542754e-03 -4.795775257826e-03
Al 3.128588014696e+00 1.806291007681e+00 -5.283634999999e+00 3.459868817614e-04 -3.071704713257e-03 -4.432472754997e-03
Al 3.128588014696e+00 1.806291007681e+00 -2.666800000000e-01 3.226041812054e-04 -3.269091282607e-03 3.468004421471e-02
Al 6.302432969971e+00 -3.690969015695e+00 5.013377999999e+00 1.927821398973e-04 -1.770648508868e-04 -3.635787845499e-03
Al 6.302432969971e+00 -3.690969015695e+00 -5.283634999999e+00 1.805488449823e-04 -7.816281532194e-05 -3.343365785561e-03
Al 6.302432969971e+00 -3.690969015695e+00 -2.666800000000e-01 2.393536290271e-04 -2.588077007664e-04 3.602271632386e-02
Al 4.738138992015e+00 -9.815320041739e-01 5.013377999999e+00 -1.370247442815e-03 1.309227224770e-02 -5.370271964863e-03
Al 4.738138992015e+00 -9.815320041739e-01 -5.283634999999e+00 -1.329133104337e-03 1.300652916459e-02 -5.109664988507e-03
Al 4.738138992015e+00 -9.815320041739e-01 -2.666800000000e-01 -1.454631857010e-03 1.323849029283e-02 3.406956409229e-02
Al -3.219101985305e+00 1.806291007681e+00 5.013377999999e+00 2.985171595906e-03 -1.720005913384e-03 -5.890657201506e-03
Al -3.219101985305e+00 1.806291007681e+00 -5.283634999999e+00 3.032337048668e-03 -1.773187763035e-03 -5.552409192468e-03
Al -3.219101985305e+00 1.806291007681e+00 -2.666800000000e-01 2.930796247638e-03 -1.975822851578e-03 3.390899715039e-02
Al -4.525703002842e-02 -3.690969015695e+00 5.013377999999e+00 2.833170965541e-03 1.130431360746e-03 -4.773099727098e-03
Al -4.525703002842e-02 -3.690969015695e+00 -5.283634999999e+00 2.816061044888e-03 1.252766995211e-03 -4.471757922293e-03
Al -4.525703002842e-02 -3.690969015695e+00 -2.666800000000e-01 2.822502227444e-03 1.087528962362e-03 3.497650082678e-02
Al -1.609551007985e+00 -9.815320041739e-01 5.013377999999e+00 1.216535796643e-03 1.428810671522e-02 -6.185272811152e-03
Al -1.609551007985e+00 -9.815320041739e-01 -5.283634999999e+00 1.221112842316e-03 1.421976783671e-02 -5.987593852135e-03
Ga -1.609551007985e+00 -9.815320041739e-01 -2.666800000000e-01 1.968480513094e-03 1.821239183611e-02 4.318144214612e-02
N 1.564294007348e+00 9.031460038403e-01 4.418497000000e+00 -6.432760561914e-04 -1.359383871585e-02 6.335831074522e-03
N 1.564294007348e+00 9.031460038402e-01 -5.878516000000e+00 -6.462679805847e-04 -1.362081698809e-02 6.004279565839e-03
N 1.564294007348e+00 9.031460038402e-01 -8.615610000000e-01 -6.442901897084e-04 -1.352535986844e-02 7.133807191345e-03
N 2.938992213678e-08 3.612582015362e+00 4.418497000000e+00 -2.021482576890e-03 3.569344191545e-06 3.937436330090e-03
N 2.938992150626e-08 3.612582015362e+00 -5.878516000000e+00 -1.995197388445e-03 -6.291183338947e-06 3.460553822794e-03
N 2.938992181346e-08 3.612582015362e+00 -8.615610000000e-01 -2.016757975968e-03 1.817679653136e-04 4.991397623129e-03
N 3.173844984667e+00 -1.884678008014e+00 4.418497000000e+00 -2.551482279789e-03 1.482091239089e-03 3.466237235337e-03
N 3.173844984667e+00 -1.884678008014e+00 -5.878516000000e+00 -2.515806458011e-03 1.464349073666e-03 3.061369879096e-03
N 3.173844984667e+00 -1.884678008014e+00 -8.615610000000e-01 -2.381490917964e-03 1.217690810358e-03 4.579218110682e-03
N -4.783395992652e+00 9.031460038403e-01 4.418497000000e+00 8.388819465570e-04 -1.338955103026e-02 6.773799015703e-03
N -4.783395992652e+00 9.031460038402e-01 -5.878516000000e+00 8.491818222571e-04 -1.341873051603e-02 6.374750608044e-03
N -4.783395992652e+00 9.031460038402e-01 -8.615610000000e-01 9.915037837120e-04 -1.338835937699e-02 7.525472026267e-03
N -6.347689970610e+00 3.612582015362e+00 4.418497000000e+00 -5.004660463024e-04 2.550260042951e-04 4.324055316827e-03
N -6.347689970610e+00 3.612582015362e+00 -5.878516000000e+00 -4.958127228087e-04 2.700974258827e-04 3.944943226250e-03
N -6.347689970610e+00 3.612582015362e+00 -8.615610000000e-01 -5.009383884762e-04 4.973571692317e-04 5.479462271465e-03
N -3.173845015333e+00 -1.884678008014e+00 4.418497000000e+00 -9.115039140459e-04 1.818815132031e-03 3.831563487977e-03
N -3.173845015333e+00 -1.884678008014e+00 -5.878516000000e+00 -1.049569190513e-03 1.709498338598e-03 3.458062032227e-03
N -3.173845015333e+00 -1.884678008014e+00 -8.615610000000e-01 -1.988147354067e-02 -9.092786694613e-03 -2.179902510832e-03
N -1.654807992652e+00 9.031460038403e-01 4.418497000000e+00 1.354229135887e-02 -7.927413005498e-03 9.284471256149e-03
N -1.654807992652e+00 9.031460038402e-01 -5.878516000000e+00 1.353523368795e-02 -7.806600648241e-03 8.786078485774e-03
N -1.654807992652e+00 9.031460038402e-01 -8.615610000000e-01 1.317600841450e-02 9.805876861703e-03 4.105844928404e-03
N -3.219101970610e+00 3.612582015362e+00 4.418497000000e+00 1.200289847409e-02 5.942750180971e-03 6.805881411420e-03
N -3.219101970610e+00 3.612582015362e+00 -5.878516000000e+00 1.201769192780e-02 5.948475601183e-03 6.254271301728e-03
N -3.219101970610e+00 3.612582015362e+00 -8.615610000000e-01 1.210345906124e-02 6.002966721575e-03 7.416195903196e-03
N -4.525701533274e-02 -1.884678008014e+00 4.418497000000e+00 1.131136641843e-02 7.442421260553e-03 6.260955733378e-03
N -4.525701533274e-02 -1.884678008014e+00 -5.878516000000e+00 1.148176840898e-02 7.342726413864e-03 5.875269556946e-03
N -4.525701533274e-02 -1.884678008014e+00 -8.615610000000e-01 3.001906959390e-02 -3.469367326010e-03 -2.067368265624e-05
N 1.469567187386e-08 1.806291007681e+00 1.910020000000e+00 -1.175266094450e-02 -7.627120881036e-03 -2.872721590347e-02
N 1.469567218106e-08 1.806291007681e+00 6.926975000000e+00 -1.149085329237e-02 -7.354158828595e-03 5.935646571173e-03
N 1.469567155055e-08 1.806291007681e+00 -3.370038000000e+00 -1.138908989417e-02 -7.254884941505e-03 5.903456790784e-03
N 3.173844969971e+00 -3.690969015695e+00 1.910020000000e+00 -1.233606694889e-02 -6.027197758340e-03 -2.818498222151e-02
N 3.173844969971e+00 -3.690969015695e+00 6.926975000000e+00 -1.202656791389e-02 -5.930975095627e-03 6.322197723824e-03
N 3.173844969971e+00 -3.690969015695e+00 -3.370038000000e+00 -1.203361589811e-02 -5.935449623904e-03 6.480555118891e-03
N 1.609550992015e+00 -9.815320041739e-01 1.910020000000e+00 -1.396114645468e-02 8.037153714622e-03 -2.544250951741e-02
N 1.609550992015e+00 -9.815320041739e-01 6.926975000000e+00 -1.355319100310e-02 7.764137980101e-03 8.823064537179e-03
N 1.609550992015e+00 -9.815320041739e-01 -3.370038000000e+00 -1.343694533101e-02 7.793386239489e-03 8.890056195707e-03
N 3.128588014696e+00 1.806291007681e+00 1.910020000000e+00 1.065919896992e-03 -1.936698067126e-03 -3.128832655613e-02
N 3.128588014696e+00 1.806291007681e+00 6.926975000000e+00 1.005945921051e-03 -1.729857809696e-03 3.537518322456e-03
N 3.128588014696e+00 1.806291007681e+00 -3.370038000000e+00 1.014409083857e-03 -1.711886768554e-03 3.560075987553e-03
N 6.302432969971e+00 -3.690969015695e+00 1.910020000000e+00 5.166662784067e-04 -2.190243303799e-04 -3.066816839211e-02
N 6.302432969971e+00 -3.690969015695e+00 6.926975000000e+00 4.591064018974e-04 -2.180425081258e-04 3.892847479970e-03
N 6.302432969971e+00 -3.690969015695e+00 -3.370038000000e+00 4.319885490367e-04 -3.439100552775e-04 3.958501974518e-03
N 4.738138992015e+00 -9.815320041739e-01 1.910020000000e+00 -8.916107664361e-04 1.371002272140e-02 -2.810059924265e-02
N 4.738138992015e+00 -9.815320041739e-01 6.926975000000e+00 -8.393656851825e-04 1.334836664953e-02 6.316632748360e-03
N 4.738138992015e+00 -9.815320041739e-01 -3.370038000000e+00 -9.589021658618e-04 1.338094301165e-02 6.375603299032e-03
N -3.219101985305e+00 1.806291007681e+00 1.910020000000e+00 2.807595619234e-03 -1.560835260622e-03 -3.196194275217e-02
N -3.219101985305e+00 1.806291007681e+00 6.926975000000e+00 2.565454784426e-03 -1.441346181895e-03 3.117357195648e-03
N -3.219101985305e+00 1.806291007681e+00 -3.370038000000e+00 2.462632793540e-03 -1.345861400463e-03 3.022589132289e-03
N -4.525703002842e-02 -3.690969015695e+00 1.910020000000e+00 2.239493606925e-03 1.425551347870e-04 -3.133298348668e-02
N -4.525703002842e-02 -3.690969015695e+00 6.926975000000e+00 2.039559161647e-03 6.099023882361e-05 3.502522011752e-03
N -4.525703002842e-02 -3.690969015695e+00 -3.370038000000e+00 2.062893701038e-03 -6.593612440364e-05 3.518778668518e-03
N -1.609551007985e+00 -9.815320041739e-01 1.910020000000e+00 8.189145846881e-04 1.419386043727e-02 -1.723416093938e-02
N -1.609551007985e+00 -9.815320041739e-01 6.926975000000e+00 6.560221973816e-04 1.359643909499e-02 5.924890325351e-03
N -1.609551007985e+00 -9.815320041739e-01 -3.370038000000e+00 6.399994088805e-04 1.354011917970e-02 5.145167077668e-03
108
dft_energy=-4.824373492967e+05 Lattice="9.473657570000e+00 0.000000000000e+00 0.000000000000e+00 -4.738841218987e+00 8.201799734943e+00 0.000000000000e+00 -2.477773642341e-04 4.709975240678e-05 1.529805735792e+01" dft_stress="2.406687531498e-02 3.953633461550e-03 -1.269538680077e-04 3.943463790203e-03 2.836743203207e-02 -1.694034575247e-04 -1.261103291960e-04 -1.651782425285e-04 4.035009239456e-02" Properties=species:S:1:pos:R:3:dft_forces:R:3 config_type=random system_name=random
Al 1.561423203687e+00 8.940215997306e-01 2.474514325446e+00 -1.406224417730e-03 -1.071392044248e-02 -8.096401039358e-03
Al 1.560285510394e+00 8.946821449650e-01 7.510903825966e+00 -4.026681583276e-04 -1.148011162978e-02 -3.773171328850e-03
Al 1.561034347083e+00 8.936310050379e-01 -2.761783670275e+00 -5.643265811879e-04 -1.142889042975e-02 -1.625412737354e-03
Al -5.973188672024e-03 3.607532524797e+00 2.473606181833e+00 -2.143931503594e-03 -2.424381424268e-03 -6.700214496069e-03
Al -5.456401881328e-03 3.608056783311e+00 7.510844070629e+00 -2.008529071021e-03 -9.331632283761e-04 -2.280191061663e-03
Al -5.687059918941e-03 3.608735497119e+00 -2.761353725847e+00 -1.966747891635e-03 -1.181454953844e-03 -8.224961530712e-05
Al 3.167469338665e+00 -1.880716215373e+00 2.467714206873e+00 -2.444521739113e-03 1.050853900377e-03 -6.612387865160e-03
Al 3.167802151878e+00 -1.880405127207e+00 7.510444633573e+00 -2.152390934316e-03 1.185950005786e-03 -2.858456660649e-03
Al 3.168098076208e+00 -1.880550093169e+00 -2.759723003692e+00 -2.186355875657e-03 1.227689405335e-03 -4.864341266878e-04
Al -4.780369956545e+00 8.961112957308e-01 2.470754803245e+00 1.106816318902e-03 -1.033097185306e-02 -6.334800853876e-03
Al -4.780537617897e+00 8.966110356941e-01 7.511388048288e+00 1.493778753063e-03 -1.052483240565e-02 -2.930208589415e-03
Al -4.779598395907e+00 8.965929747679e-01 -2.758510937663e+00 1.472563615050e-03 -1.043511759931e-02 -5.717254269124e-04
Al -6.346273795102e+00 3.610038699106e+00 2.469812284380e+00 2.133838157857e-05 -3.257493363855e-04 -5.229109191018e-03
Al -6.345907474377e+00 3.609891171564e+00 7.511304765433e+00 6.596665705755e-05 -3.824000823571e-05 -1.445463011186e-03
Al -6.345990386653e+00 3.609872899791e+00 -2.758691192148e+00 3.949776281301e-05 -1.349476129886e-05 8.791194903234e-04
Al -3.176613632182e+00 -1.881339404168e+00 2.473733330778e+00 2.160089753298e-03 3.918170705116e-03 -7.548967421452e-03
Al -3.172776723525e+00 -1.878508426737e+00 7.510956800276e+00 -1.752496645719e-04 2.159630765080e-03 -2.117432864835e-03
Al -3.173533106503e+00 -1.878542809674e+00 -2.760216934643e+00 2.730885884956e-04 2.309608587111e-03 -6.742615732902e-05
Al -1.646834807347e+00 8.914806489964e-01 2.480003398779e+00 1.233189022158e-02 -2.166687336445e-03 -8.538686993826e-03
Al -1.647486357154e+00 8.984534769938e-01 7.511426459157e+00 1.137850854413e-02 -6.491607339367e-03 -4.658756894186e-03
Al -1.646686221740e+00 8.979932124131e-01 -2.769990617880e+00 1.175497383606e-02 -6.217447608226e-03 -5.245654502608e-04
Al -3.213213814332e+00 3.610726430563e+00 2.470216444223e+00 9.846469701023e-03 3.993269128792e-03 -6.292364755819e-03
Al -3.213098262334e+00 3.611862878408e+00 7.511259505504e+00 9.943231030381e-03 4.015512789144e-03 -2.933722532118e-03
Al -3.212626483060e+00 3.610623358681e+00 -2.758600660210e+00 9.915204636718e-03 3.940637640189e-03 -2.998393240425e-04
Al -3.950562859568e-02 -1.873539164919e+00 2.471218295581e+00 1.005066831674e-02 5.800000974327e-03 -7.465736350492e-03
Al -3.967617727752e-02 -1.876750590145e+00 7.510915823374e+00 9.805072649391e-03 6.106350825790e-03 -3.625220655069e-03
Al -3.827016428194e-02 -1.877428703646e+00 -2.760489555808e+00 9.419529087924e-03 6.384542877330e-03 -1.515200034656e-03
Al -5.520952375184e-03 1.798389764589e+00 4.998308734276e+00 -9.549092395078e-03 -6.098389788848e-03 -5.176369443838e-03
Al -5.007739691916e-03 1.798496670149e+00 -5.277074854911e+00 -9.601617601975e-03 -6.107656843703e-03 -3.204764942501e-03
Al -1.361858547261e-02 1.793756388926e+00 -2.430266846701e-01 -5.162837032918e-03 -3.929950047969e-03 2.657384262535e-02
Al 3.167335610251e+00 -3.689855090692e+00 4.997729499172e+00 -9.774261144062e-03 -4.014232426074e-03 -3.495585296454e-03
Al 3.167636796279e+00 -3.690091503673e+00 -5.275532094575e+00 -9.935023289243e-03 -3.986720030428e-03 -2.290206376982e-03
Al 3.167753201181e+00 -3.690999989597e+00 -2.189701655678e-01 -9.707022347858e-03 -4.115912481756e-03 2.226480525328e-02
Al 1.602262738495e+00 -9.769090546080e-01 4.998162630292e+00 -1.123411241772e-02 6.776209516505e-03 -4.989488167062e-03
Al 1.602319533679e+00 -9.769989690891e-01 -5.275739868366e+00 -1.139036975634e-02 6.585594175202e-03 -3.853997377486e-03
Al 1.603477569990e+00 -9.778652644776e-01 -2.193583547982e-01 -1.151766473407e-02 7.105577337488e-03 2.076670790446e-02
Al 3.127608320250e+00 1.800053543336e+00 4.997301005285e+00 -7.677627621633e-06 -2.226791318031e-03 -2.773420174237e-03
Al 3.127633250812e+00 1.800078667857e+00 -5.275924941788e+00 1.116535734877e-04 -2.196947326193e-03 -1.462927242167e-03
Al 3.124390416376e+00 1.799386929918e+00 -2.215439509850e-01 -3.376834657583e-04 -2.252140499395e-03 2.313987454684e-02
Al 6.300275885682e+00 -3.688235198873e+00 4.998200336011e+00 -1.163345031304e-04 -4.549198785172e-04 -1.910312541473e-03
Al 6.300764280467e+00 -3.688216271232e+00 -5.275607179137e+00 -1.791642145960e-05 -3.759292652394e-05 -8.009590092768e-04
Al 6.298480119555e+00 -3.690033892383e+00 -2.199302439134e-01 3.752118856948e-05 -3.063247983803e-04 2.378005657955e-02
Al 4.734515781831e+00 -9.751123328203e-01 4.997943988189e+00 -1.859650665880e-03 1.070018354233e-02 -3.357089870674e-03
Al 4.735134844402e+00 -9.749340203891e-01 -5.275462716477e+00 -1.546198134496e-03 1.058740163336e-02 -2.316668893996e-03
Al 4.732880712583e+00 -9.758389317948e-01 -2.180972071691e-01 -1.498243393473e-03 1.059463734148e-02 2.226714288805e-02
Al -3.213722034770e+00 1.802095150013e+00 4.997175321858e+00 2.138973623669e-03 -1.247861566586e-03 -3.353950467844e-03
Al -3.213589168578e+00 1.802261271609e+00 -5.277079385453e+00 2.048202002834e-03 -1.245583692321e-03 -2.441332376290e-03
Al -3.220517331864e+00 1.804963421767e+00 -2.083156078222e-01 6.544471453503e-03 -2.785215758872e-03 1.956959420287e-02
Al -4.004431117518e-02 -3.686165892852e+00 4.996680054477e+00 1.927451783641e-03 8.845314050533e-04 -2.766679424340e-03
Al -3.973084856971e-02 -3.686467993056e+00 -5.275950006418e+00 1.934784168047e-03 9.428480207069e-04 -1.451198246675e-03
Al -3.856819799750e-02 -3.686949921249e+00 -2.200848796253e-01 1.448584814540e-03 8.069627890652e-04 2.311250865017e-02
Al -1.606040016870e+00 -9.731845644676e-01 4.998615668872e+00 5.149860356691e-04 1.156145813950e-02 -3.905190544671e-03
Al -1.605326441060e+00 -9.737171622294e-01 -5.276576877502e+00 4.525244173549e-04 1.141242416849e-02 -3.147158244459e-03
Ga -1.602841939360e+00 -9.681661975768e-01 -2.167554156347e-01 1.006001932914e-03 1.445217791800e-02 2.676883211000e-02
N 1.561375556309e+00 8.941846013940e-01 4.402081331198e+00 7.120887518264e-05 -1.123099313468e-02 2.260757555003e-03
N 1.560704593258e+00 8.947080460194e-01 -5.869947707040e+00 -8.026119221466e-05 -1.118969880676e-02 3.408401799268e-03
N 1.558619081345e+00 8.930669430467e-01 -8.350508641193e-01 6.741163028134e-04 -1.079097240364e-02 6.079672176097e-03
N -5.405696769275e-03 3.609156148570e+00 4.401578151384e+00 -1.423472621765e-03 1.455195665565e-04 2.462894289347e-04
N -4.890318059378e-03 3.608411014199e+00 -5.870259465648e+00 -1.484488495664e-03 -1.004074556241e-04 1.422143743875e-03
N -6.800974521947e-03 3.607367797984e+00 -8.337563836968e-01 -9.563274069966e-04 6.944633624513e-04 4.039937381465e-03
N 3.167778293186e+00 -1.880516994437e+00 4.399539750524e+00 -1.846973344606e-03 1.126016027986e-03 -9.831131846352e-04
N 3.168182193153e+00 -1.880520785428e+00 -5.870102074302e+00 -1.810196893183e-03 1.114097182635e-03 1.103479865159e-03
N 3.167957262833e+00 -1.881091177929e+00 -8.287729572437e-01 -1.764708222163e-03 8.158670804989e-04 3.021852175079e-03
N -4.780589915674e+00 8.960990372795e-01 4.400543621932e+00 1.289829193006e-03 -1.089674841518e-02 1.621582102620e-03
N -4.780500970622e+00 8.963010473692e-01 -5.869788039129e+00 1.198454708928e-03 -1.098962916959e-02 3.687687425406e-03
N -4.781826482983e+00 8.961201272447e-01 -8.279350714189e-01 2.013095632306e-03 -1.076168273866e-02 5.667012561107e-03
N -6.346095720902e+00 3.609973080512e+00 4.399880490145e+00 -1.136472566356e-04 1.632452827226e-04 -2.324737105966e-04
N -6.345684853241e+00 3.609838260813e+00 -5.869884863410e+00 -1.322006312940e-04 8.966756717749e-05 1.825495643497e-03
N -6.346507371909e+00 3.609844367140e+00 -8.289818669480e-01 -7.388943415081e-05 3.099064806042e-04 3.899552231604e-03
N -3.174151662699e+00 -1.879520846548e+00 4.401692534780e+00 -6.412519585622e-05 1.635064295824e-03 -8.290943996882e-04
N -3.172716948481e+00 -1.879030627605e+00 -5.870119073084e+00 -6.269642716300e-04 1.415083841763e-03 1.464955130248e-03
N -3.178558254643e+00 -1.880609241038e+00 -8.305914324156e-01 -1.529530648246e-02 -7.053375085062e-03 -2.506370537447e-03
N -1.648165432552e+00 8.980830241877e-01 4.404362509505e+00 1.098577686205e-02 -7.021735676040e-03 4.830852247177e-03
N -1.647201272837e+00 8.983460540035e-01 -5.869705833931e+00 1.139264649560e-02 -6.618844552475e-03 5.846999080522e-03
N -1.625946929795e+00 9.159103804282e-01 -8.375172759088e-01 1.022306260096e-03 5.885182108218e-03 2.184869158237e-03
N -3.212942957596e+00 3.611933036453e+00 4.400192394503e+00 9.888158590658e-03 4.341256681811e-03 1.641920533901e-03
N -3.212766286669e+00 3.612077007272e+00 -5.869898669243e+00 1.007719009540e-02 4.443184867162e-03 3.610009561435e-03
N -3.212900092398e+00 3.611125141564e+00 -8.280664420049e-01 9.568400502242e-03 4.297749150456e-03 5.636093503683e-03
N -3.970926236413e-02 -1.876176927613e+00 4.400844022446e+00 9.182696154096e-03 5.627626339174e-03 1.352005575663e-03
N -3.942563314696e-02 -1.877065894911e+00 -5.869911993800e+00 9.579887337876e-03 5.716454989104e-03 3.358149929172e-03
N -3.292297599786e-02 -1.880531013143e+00 -8.313068434735e-01 2.440528480204e-02 -3.312088379145e-03 -1.058174877179e-03
N -6.723331125419e-03 1.795659113682e+00 1.884642753477e+00 -9.507048512711e-03 -5.048906897697e-03 -2.353461357558e-02
N -5.588138011678e-03 1.798502483074e+00 6.917399647073e+00 -9.618807435152e-03 -5.733073125252e-03 2.993327842054e-03
N -4.820799310638e-03 1.798606746599e+00 -3.359449830036e+00 -9.138468242522e-03 -5.443417391836e-03 3.627315234701e-03
N 3.167192146717e+00 -3.691757959581e+00 1.863329155502e+00 -9.961255167640e-03 -3.904138868306e-03 -1.967994952845e-02
N 3.167270366513e+00 -3.690229541179e+00 6.917065750683e+00 -1.010575527247e-02 -4.444352285488e-03 3.159258149984e-03
N 3.167422788924e+00 -3.690335212256e+00 -3.356362936142e+00 -1.021787016496e-02 -4.371337986028e-03 4.104133879358e-03
N 1.602037775481e+00 -9.762008509082e-01 1.864100322396e+00 -1.099562553840e-02 6.301619742177e-03 -1.768509719643e-02
N 1.602019034242e+00 -9.768648066649e-01 6.917543381219e+00 -1.151140422822e-02 6.479722814729e-03 5.143636044654e-03
N 1.602700807266e+00 -9.773330366319e-01 -3.356777514349e+00 -1.133928455880e-02 6.520827096277e-03 5.810075608865e-03
N 3.127292866016e+00 1.800555699189e+00 1.863975419115e+00 9.394799271364e-04 -1.665094767768e-03 -2.210247556635e-02
N 3.127534565169e+00 1.800559469023e+00 6.916805731022e+00 5.979951630750e-04 -1.306432609255e-03 9.683589450737e-04
N 3.128045650057e+00 1.800271885622e+00 -3.356461367778e+00 7.086586205887e-04 -1.275861041503e-03 1.941611453358e-03
N 6.299687664447e+00 -3.689482881652e+00 1.864151470449e+00 4.069963488974e-04 9.411787384330e-04 -2.170001227430e-02
N 6.300543701646e+00 -3.688243741986e+00 6.916992363499e+00 1.776254164847e-04 1.197393792859e-05 1.269880533768e-03
N 6.300391491327e+00 -3.688019802191e+00 -3.356742088870e+00 2.871977242873e-04 -1.725501857214e-04 2.127974760316e-03
N 4.734950417832e+00 -9.748794414750e-01 1.863051477591e+00 -1.109634769839e-03 1.060965159340e-02 -1.941728886378e-02
N 4.734945659388e+00 -9.746860126199e-01 6.917178950144e+00 -1.101308392301e-03 1.085698469612e-02 3.078833712077e-03
N 4.735140094897e+00 -9.747064679425e-01 -3.356276368465e+00 -1.320778249346e-03 1.099504287201e-02 4.092392573633e-03
N -3.211872526011e+00 1.798457636502e+00 1.865053714321e+00 1.523268915600e-03 -4.880558408156e-04 -2.223756768264e-02
N -3.213639455703e+00 1.802240428040e+00 6.916880438586e+00 1.905011680336e-03 -1.083063744634e-03 7.164098752513e-04
N -3.213396647398e+00 1.802021153963e+00 -3.358360253219e+00 1.584917619424e-03 -1.149251006198e-03 1.537736588817e-03
N -4.119878014848e-02 -3.685477894363e+00 1.862941331760e+00 1.628101992378e-03 5.535862578678e-04 -2.177998055167e-02
N -4.027838761470e-02 -3.686609655625e+00 6.916558719363e+00 1.458607924189e-03 2.471770131083e-04 8.161674100941e-04
N -3.971616515579e-02 -3.687172303408e+00 -3.356438079113e+00 1.430639073933e-03 -1.879750078343e-05 1.857804557060e-03
N -1.599332811323e+00 -9.540898303699e-01 1.868289859214e+00 -3.100531976776e-03 4.045087695680e-03 -6.103949817755e-03
N -1.605710465723e+00 -9.732535079475e-01 6.917520963675e+00 1.149265885901e-04 1.102086580752e-02 2.909716780973e-03
N -1.605342984147e+00 -9.739710758723e-01 -3.358339568599e+00 5.066307229246e-05 1.087649212566e-02 3.674768829417e-03
