4
Lattice="20.0 0.0 0.0 0.0 20.0 0.0 0.0 0.0 20.0" Properties=species:S:1:pos:R:3:mace_mp_forces:R:3:forces:R:3 units="_JSON {\"energy\": \"eV\", \"forces\": \"ev/Ang\", \"stress\": \"ev/Ang^3\"}" model_path=/work/e05/e05/bcamino/mace/models/mace-mpa-0-medium.model arch=mace_mp mace_mp_energy=15.12216657128368 mace_mp_stress="-1.209043892459246e-06 -3.0451672450263846e-07 -2.3022197439826733e-06 1.4245395691053004e-07 -1.364611513919756e-07 5.899746464246527e-07" mace_energy=15.12216657128368 max_force=71.30395004461226 energy=15.12216657128368 free_energy=15.12216657128368 stress="-1.209043892459246e-06 5.899746464246527e-07 -1.364611513919756e-07 5.899746464246527e-07 -3.0451672450263846e-07 1.4245395691053004e-07 -1.364611513919756e-07 1.4245395691053004e-07 -2.3022197439826733e-06" pbc="F F F"
Mg      10.56405174       9.75879009       9.77588445      37.36686093     -11.41911322     -30.62234889      37.36686093     -11.41911322     -30.62234889
O       10.29732128       9.80203405      10.88182241      15.36676120     -14.19728285      68.16562992      15.36676120     -14.19728285      68.16562992
Mg       9.18041433      10.43208237      10.53884623     -37.23982507      20.19457885      -7.24657233     -37.23982507      20.19457885      -7.24657233
O       10.09087500       9.90800062       8.64005214     -15.49379705       5.42181723     -30.29670869     -15.49379705       5.42181723     -30.29670869
4
Lattice="20.0 0.0 0.0 0.0 20.0 0.0 0.0 0.0 20.0" Properties=species:S:1:pos:R:3:mace_mp_forces:R:3:forces:R:3 units="_JSON {\"energy\": \"eV\", \"forces\": \"ev/Ang\", \"stress\": \"ev/Ang^3\"}" model_path=/work/e05/e05/bcamino/mace/models/mace-mpa-0-medium.model arch=mace_mp mace_mp_energy=65.94595787138717 mace_mp_stress="-1.99337632301114e-06 -3.158154309116889e-06 -1.708179363031376e-06 -9.091829405810601e-08 -1.1783288192417574e-06 -1.938467967582382e-06" mace_energy=65.94595787138717 max_force=135.71527658858025 energy=65.94595787138717 free_energy=65.94595787138717 stress="-1.99337632301114e-06 -1.938467967582382e-06 -1.1783288192417574e-06 -1.938467967582382e-06 -3.158154309116889e-06 -9.091829405810601e-08 -1.1783288192417574e-06 -9.091829405810601e-08 -1.708179363031376e-06" pbc="F F F"
Mg       9.41934268       9.07902666      10.02964324     -66.89202980     -70.98569920     -19.27385417     -66.89202980     -70.98569920     -19.27385417
O       10.13050649       9.80253479      10.25636140      23.85876294     -30.26711820      29.21734634      23.85876294     -30.26711820      29.21734634
Mg      10.51741686      10.62347293      10.25141655      80.84459930      88.72306402      63.33249540      80.84459930      88.72306402      63.33249540
O        9.96556573      10.64941517       9.31666454     -37.81133245      12.52975338     -73.27598757     -37.81133245      12.52975338     -73.27598757
4
Lattice="20.0 0.0 0.0 0.0 20.0 0.0 0.0 0.0 20.0" Properties=species:S:1:pos:R:3:mace_mp_forces:R:3:forces:R:3 units="_JSON {\"energy\": \"eV\", \"forces\": \"ev/Ang\", \"stress\": \"ev/Ang^3\"}" model_path=/work/e05/e05/bcamino/mace/models/mace-mpa-0-medium.model arch=mace_mp mace_mp_energy=38.97673004393748 mace_mp_stress="-9.658904250998127e-07 -1.1857248944797758e-07 -1.9476941107703621e-07 3.728651053336577e-09 -3.0615354039630046e-07 1.0638152711845467e-07" mace_energy=38.97673004393748 max_force=80.15213822351727 energy=38.97673004393748 free_energy=38.97673004393748 stress="-9.658904250998127e-07 1.0638152711845467e-07 -3.0615354039630046e-07 1.0638152711845467e-07 -1.1857248944797758e-07 3.728651053336577e-09 -3.0615354039630046e-07 3.728651053336577e-09 -1.9476941107703621e-07" pbc="F F F"
Mg       9.53043243      10.84171655       9.59006708     -74.51482674       6.61190745     -26.02341070     -74.51482674       6.61190745     -26.02341070
O       10.16551418      10.75735765       9.84888340      75.36903541      -3.37950386      27.06386367      75.36903541      -3.37950386      27.06386367
Mg      10.42543227       9.12168607       9.65986793       1.66015759      -3.79251667      -2.77679251       1.66015759      -3.79251667      -2.77679251
O        9.90153429       9.29823953      11.29058342      -2.51436626       0.56011308       1.73633955      -2.51436626       0.56011308       1.73633955
4
Lattice="20.0 0.0 0.0 0.0 20.0 0.0 0.0 0.0 20.0" Properties=species:S:1:pos:R:3:mace_mp_forces:R:3:forces:R:3 units="_JSON {\"energy\": \"eV\", \"forces\": \"ev/Ang\", \"stress\": \"ev/Ang^3\"}" model_path=/work/e05/e05/bcamino/mace/models/mace-mpa-0-medium.model arch=mace_mp mace_mp_energy=72.6667324856764 mace_mp_stress="-2.083907664307982e-06 -3.0099951266268907e-06 -2.680930184175365e-06 8.902655456780856e-07 1.3976006227204082e-06 1.4505782416667207e-06" mace_energy=72.6667324856764 max_force=124.84079485719651 energy=72.6667324856764 free_energy=72.6667324856764 stress="-2.083907664307982e-06 1.4505782416667207e-06 1.3976006227204082e-06 1.4505782416667207e-06 -3.0099951266268907e-06 8.902655456780856e-07 1.3976006227204082e-06 8.902655456780856e-07 -2.680930184175365e-06" pbc="F F F"
Mg       9.45281239      10.52035882      10.22454868     -91.20727827      52.96103671      66.79509744     -91.20727827      52.96103671      66.79509744
O        9.99510316      10.61669129       9.45128276      27.98711656      58.78449466     -87.38444467      27.98711656      58.78449466     -87.38444467
Mg      10.49028127       9.47877379       9.82351106      81.86521359     -54.95303545     -62.45281323      81.86521359     -54.95303545     -62.45281323
O       10.09134654       9.38462642      10.47570694     -18.64505187     -56.79249591      83.04216046     -18.64505187     -56.79249591      83.04216046
4
Lattice="20.0 0.0 0.0 0.0 20.0 0.0 0.0 0.0 20.0" Properties=species:S:1:pos:R:3:mace_mp_forces:R:3:forces:R:3 units="_JSON {\"energy\": \"eV\", \"forces\": \"ev/Ang\", \"stress\": \"ev/Ang^3\"}" model_path=/work/e05/e05/bcamino/mace/models/mace-mpa-0-medium.model arch=mace_mp mace_mp_energy=0.48103967450709195 mace_mp_stress="-6.152381343259489e-07 -8.369048092775927e-07 -5.208487090154494e-07 -2.1780065157030965e-07 1.1981733760911767e-07 -7.141662343805076e-08" mace_energy=0.48103967450709195 max_force=28.711564783806896 energy=0.48103967450709195 free_energy=0.48103967450709195 stress="-6.152381343259489e-07 -7.141662343805076e-08 1.1981733760911767e-07 -7.141662343805076e-08 -8.369048092775927e-07 -2.1780065157030965e-07 1.1981733760911767e-07 -2.1780065157030965e-07 -5.208487090154494e-07" pbc="F F F"
Mg      10.60751055      10.88836457      10.03524601       7.08614079      24.29102519      -3.60901102       7.08614079      24.29102519      -3.60901102
O       10.82914723       9.50844163       9.99804682      12.20143680     -18.56292423      -0.28764698      12.20143680     -18.56292423      -0.28764698
Mg       9.29881172       9.93549584      10.44058781     -16.84563728       4.18325299      22.87091715     -16.84563728       4.18325299      22.87091715
O        9.31316399       9.23998470       9.27908669      -2.44194031      -9.91135396     -18.97425915      -2.44194031      -9.91135396     -18.97425915
4
Lattice="20.0 0.0 0.0 0.0 20.0 0.0 0.0 0.0 20.0" Properties=species:S:1:pos:R:3:mace_mp_forces:R:3:forces:R:3 units="_JSON {\"energy\": \"eV\", \"forces\": \"ev/Ang\", \"stress\": \"ev/Ang^3\"}" model_path=/work/e05/e05/bcamino/mace/models/mace-mpa-0-medium.model arch=mace_mp mace_mp_energy=74.95123939419473 mace_mp_stress="-9.334938013793811e-07 -3.6430702093079674e-06 -8.40873262051972e-07 3.7666291977811987e-07 -8.428109944603353e-07 1.5760396206194646e-07" mace_energy=74.95123939419473 max_force=176.682559334094 energy=74.95123939419473 free_energy=74.95123939419473 stress="-9.334938013793811e-07 1.5760396206194646e-07 -8.428109944603353e-07 1.5760396206194646e-07 -3.6430702093079674e-06 3.7666291977811987e-07 -8.428109944603353e-07 3.7666291977811987e-07 -8.40873262051972e-07" pbc="F F F"
Mg      10.13278003      10.72517850      10.23629968      18.15145107     110.43298567      10.74352803      18.15145107     110.43298567      10.74352803
O        9.89493891       9.50953768      10.12235467    -126.42083646      -6.14187503    -106.45776603    -126.42083646      -6.14187503    -106.45776603
Mg      10.23646445       9.23060359      10.45653062     107.30864960    -100.69012108      97.79100169     107.30864960    -100.69012108      97.79100169
O        9.54412058      10.55763628       8.82512701       0.96073579      -3.60098956      -2.07676368       0.96073579      -3.60098956      -2.07676368
4
Lattice="20.0 0.0 0.0 0.0 20.0 0.0 0.0 0.0 20.0" Properties=species:S:1:pos:R:3:mace_mp_forces:R:3:forces:R:3 units="_JSON {\"energy\": \"eV\", \"forces\": \"ev/Ang\", \"stress\": \"ev/Ang^3\"}" model_path=/work/e05/e05/bcamino/mace/models/mace-mpa-0-medium.model arch=mace_mp mace_mp_energy=20.473187915878057 mace_mp_stress="-1.882792750726391e-06 -3.6970029621184897e-07 -1.550178600848338e-06 -7.836933634559295e-07 -1.0514481679334711e-07 1.9655799516870304e-07" mace_energy=20.473187915878057 max_force=99.91923114935193 energy=20.473187915878057 free_energy=20.473187915878057 stress="-1.882792750726391e-06 1.9655799516870304e-07 -1.0514481679334711e-07 1.9655799516870304e-07 -3.6970029621184897e-07 -7.836933634559295e-07 -1.0514481679334711e-07 -7.836933634559295e-07 -1.550178600848338e-06" pbc="F F F"
Mg      10.72419192       9.70402052      10.43521146      78.11505872     -12.75912039      -6.24391857      78.11505872     -12.75912039      -6.24391857
O        9.64838451      10.05092291      10.76221042     -47.38600816      43.91908553      76.22029198     -47.38600816      43.91908553      76.22029198
Mg       9.47827380       9.54024207       9.73558781     -32.02031095     -29.44642018     -69.69230937     -32.02031095     -29.44642018     -69.69230937
O       10.04403819      11.09716121       8.97831860       1.29126040      -1.71354497      -0.28406404       1.29126040      -1.71354497      -0.28406404
4
Lattice="20.0 0.0 0.0 0.0 20.0 0.0 0.0 0.0 20.0" Properties=species:S:1:pos:R:3:mace_mp_forces:R:3:forces:R:3 units="_JSON {\"energy\": \"eV\", \"forces\": \"ev/Ang\", \"stress\": \"ev/Ang^3\"}" model_path=/work/e05/e05/bcamino/mace/models/mace-mpa-0-medium.model arch=mace_mp mace_mp_energy=18.751857377362377 mace_mp_stress="-1.7970768361246595e-06 -1.8008435885375012e-07 -9.967493887035186e-07 3.5780528846045993e-07 -9.721769612057364e-07 3.2239235256519705e-07" mace_energy=18.751857377362377 max_force=85.09851436520542 energy=18.751857377362377 free_energy=18.751857377362377 stress="-1.7970768361246595e-06 3.2239235256519705e-07 -9.721769612057364e-07 3.2239235256519705e-07 -1.8008435885375012e-07 3.5780528846045993e-07 -9.721769612057364e-07 3.5780528846045993e-07 -9.967493887035186e-07" pbc="F F F"
Mg       9.64308126       9.65061774      10.87595535      60.86487370     -26.62898927      53.18008299      60.86487370     -26.62898927      53.18008299
O        9.94961991      10.19142303       9.06682669     -25.18201212      -0.74847769     -19.81002007     -25.18201212      -0.74847769     -19.81002007
Mg      11.10317313      10.25150844       9.57089567      31.02060961       2.14180910      12.97576145      31.02060961       2.14180910      12.97576145
O        8.91670217       9.95726271      10.25433625     -66.70347119      25.23565785     -46.34582437     -66.70347119      25.23565785     -46.34582437
4
Lattice="20.0 0.0 0.0 0.0 20.0 0.0 0.0 0.0 20.0" Properties=species:S:1:pos:R:3:mace_mp_forces:R:3:forces:R:3 units="_JSON {\"energy\": \"eV\", \"forces\": \"ev/Ang\", \"stress\": \"ev/Ang^3\"}" model_path=/work/e05/e05/bcamino/mace/models/mace-mpa-0-medium.model arch=mace_mp mace_mp_energy=40.57376094448158 mace_mp_stress="-8.731008716676303e-07 -1.4831307164355787e-06 -2.146529680846639e-07 8.25136871637373e-08 -4.2623906564320705e-07 2.982630898947498e-08" mace_energy=40.57376094448158 max_force=85.0987134539883 energy=40.57376094448158 free_energy=40.57376094448158 stress="-8.731008716676303e-07 2.982630898947498e-08 -4.2623906564320705e-07 2.982630898947498e-08 -1.4831307164355787e-06 8.25136871637373e-08 -4.2623906564320705e-07 8.25136871637373e-08 -2.146529680846639e-07" pbc="F F F"
Mg       9.96133150      10.53131722      10.33180071      69.75143820     -32.52765212      35.86846443      69.75143820     -32.52765212      35.86846443
O        9.12836567       9.59848682       9.96355508     -25.09750237     -35.84072061     -10.54638611     -25.09750237     -35.84072061     -10.54638611
Mg      10.94465742       9.01582637       9.63701686      -0.04302542       0.40373522      -0.17320653      -0.04302542       0.40373522      -0.17320653
O        9.49529451      11.08947337      10.08381594     -44.61091041      67.96463751     -25.14887179     -44.61091041      67.96463751     -25.14887179
4
Lattice="20.0 0.0 0.0 0.0 20.0 0.0 0.0 0.0 20.0" Properties=species:S:1:pos:R:3:mace_mp_forces:R:3:forces:R:3 units="_JSON {\"energy\": \"eV\", \"forces\": \"ev/Ang\", \"stress\": \"ev/Ang^3\"}" model_path=/work/e05/e05/bcamino/mace/models/mace-mpa-0-medium.model arch=mace_mp mace_mp_energy=241.89113620886815 mace_mp_stress="-1.2144102556618195e-06 -1.4234123582982653e-05 9.722327112487488e-08 2.2857313892932032e-06 -1.043163849474722e-06 4.437652118262103e-06" mace_energy=241.89113620886815 max_force=1592.0905067997323 energy=241.89113620886815 free_energy=241.89113620886815 stress="-1.2144102556618195e-06 4.437652118262103e-06 -1.043163849474722e-06 4.437652118262103e-06 -1.4234123582982653e-05 2.2857313892932032e-06 -1.043163849474722e-06 2.2857313892932032e-06 9.722327112487488e-08" pbc="F F F"
Mg       9.68027406      10.58264859      10.14649929    -490.91267253    1510.65492601    -108.06768391    -490.91267253    1510.65492601    -108.06768391
O        9.78109708      10.28106361      10.15963887     450.16394304   -1344.03681234      26.48335292     450.16394304   -1344.03681234      26.48335292
Mg      10.03262427       9.38070629      10.54988168      53.33192864    -173.88149005      60.41595887      53.33192864    -173.88149005      60.41595887
O       10.65505556       9.77460609       8.78244880     -12.58319915       7.26337637      21.16837212     -12.58319915       7.26337637      21.16837212
4
Lattice="20.0 0.0 0.0 0.0 20.0 0.0 0.0 0.0 20.0" Properties=species:S:1:pos:R:3:mace_mp_forces:R:3:forces:R:3 units="_JSON {\"energy\": \"eV\", \"forces\": \"ev/Ang\", \"stress\": \"ev/Ang^3\"}" model_path=/work/e05/e05/bcamino/mace/models/mace-mpa-0-medium.model arch=mace_mp mace_mp_energy=-5.277563047895676 mace_mp_stress="-4.924697000767956e-07 -7.968511429184166e-08 -5.110884099925417e-07 1.9465384417164298e-07 -2.3797119723145883e-07 3.9352748198046475e-08" mace_energy=-5.277563047895676 max_force=29.278799670652916 energy=-5.277563047895676 free_energy=-5.277563047895676 stress="-4.924697000767956e-07 3.9352748198046475e-08 -2.3797119723145883e-07 3.9352748198046475e-08 -7.968511429184166e-08 1.9465384417164298e-07 -2.3797119723145883e-07 1.9465384417164298e-07 -5.110884099925417e-07" pbc="F F F"
Mg       9.82686283       9.58485816      11.02092080       0.41949571      -6.80634335      15.65854330       0.41949571      -6.80634335      15.65854330
O       10.14249627      10.19292890       9.68042926      27.26159912       3.78300440      -2.34427321      27.26159912       3.78300440      -2.34427321
Mg       8.91246823      10.28583998       9.14465742     -25.51016738       3.24833934     -13.99741982     -25.51016738       3.24833934     -13.99741982
O       11.77265834      10.00350098      10.06803134      -2.17092745      -0.22500039       0.68314974      -2.17092745      -0.22500039       0.68314974
4
Lattice="20.0 0.0 0.0 0.0 20.0 0.0 0.0 0.0 20.0" Properties=species:S:1:pos:R:3:mace_mp_forces:R:3:forces:R:3 units="_JSON {\"energy\": \"eV\", \"forces\": \"ev/Ang\", \"stress\": \"ev/Ang^3\"}" model_path=/work/e05/e05/bcamino/mace/models/mace-mpa-0-medium.model arch=mace_mp mace_mp_energy=77.67393096032467 mace_mp_stress="-2.0557126755578246e-06 -2.4093067123252676e-06 -2.959640133303731e-07 7.606193093846013e-07 -2.4375729021898043e-07 -2.6983366815855736e-07" mace_energy=77.67393096032467 max_force=167.3523896948531 energy=77.67393096032467 free_energy=77.67393096032467 stress="-2.0557126755578246e-06 -2.6983366815855736e-07 -2.4375729021898043e-07 -2.6983366815855736e-07 -2.4093067123252676e-06 7.606193093846013e-07 -2.4375729021898043e-07 7.606193093846013e-07 -2.959640133303731e-07" pbc="F F F"
Mg      10.13479787      10.37592863       9.91449811     136.98705178       0.68095498      25.88515788     136.98705178       0.68095498      25.88515788
O        9.59948868      10.52252335       9.77024089    -113.38320593     108.79440515     -57.57471978    -113.38320593     108.79440515     -57.57471978
Mg       9.25087713       9.34647838      10.11566115     -34.44455729     -97.54023135      27.10980763     -34.44455729     -97.54023135      27.10980763
O       11.33376772       9.89918411      10.18394246      10.84071145     -11.93512878       4.57975427      10.84071145     -11.93512878       4.57975427
4
Lattice="20.0 0.0 0.0 0.0 20.0 0.0 0.0 0.0 20.0" Properties=species:S:1:pos:R:3:mace_mp_forces:R:3:forces:R:3 units="_JSON {\"energy\": \"eV\", \"forces\": \"ev/Ang\", \"stress\": \"ev/Ang^3\"}" model_path=/work/e05/e05/bcamino/mace/models/mace-mpa-0-medium.model arch=mace_mp mace_mp_energy=22.427861196381016 mace_mp_stress="-7.980782396088787e-07 -1.8095293487508205e-06 -1.5167648590173093e-06 8.480702170767826e-07 -7.263219197424018e-07 1.4070780148219797e-07" mace_energy=22.427861196381016 max_force=77.4368959352135 energy=22.427861196381016 free_energy=22.427861196381016 stress="-7.980782396088787e-07 1.4070780148219797e-07 -7.263219197424018e-07 1.4070780148219797e-07 -1.8095293487508205e-06 8.480702170767826e-07 -7.263219197424018e-07 8.480702170767826e-07 -1.5167648590173093e-06" pbc="F F F"
Mg       9.59453544       9.27387995      10.04772891     -12.79536067     -41.83559927      40.50425855     -12.79536067     -41.83559927      40.50425855
O       10.68756880      10.01374682      10.58040773      46.33017499     -47.03752662      40.46552640      46.33017499     -47.03752662      40.46552640
Mg      10.35583862      10.92459569      10.19355447     -21.72991660      65.43585873     -28.63102271     -21.72991660      65.43585873     -28.63102271
O        9.38782081       9.68473744       9.05304483     -11.80489773      23.43726717     -52.33876224     -11.80489773      23.43726717     -52.33876224
4
Lattice="20.0 0.0 0.0 0.0 20.0 0.0 0.0 0.0 20.0" Properties=species:S:1:pos:R:3:mace_mp_forces:R:3:forces:R:3 units="_JSON {\"energy\": \"eV\", \"forces\": \"ev/Ang\", \"stress\": \"ev/Ang^3\"}" model_path=/work/e05/e05/bcamino/mace/models/mace-mpa-0-medium.model arch=mace_mp mace_mp_energy=168.2480234159458 mace_mp_stress="-5.118460082789597e-06 -3.1885018589511323e-06 -2.8077772187381996e-06 -1.5836465894206983e-06 -7.611810170796252e-07 -3.7870116600911643e-06" mace_energy=168.2480234159458 max_force=486.31017801074626 energy=168.2480234159458 free_energy=168.2480234159458 stress="-5.118460082789597e-06 -3.7870116600911643e-06 -7.611810170796252e-07 -3.7870116600911643e-06 -3.1885018589511323e-06 -1.5836465894206983e-06 -7.611810170796252e-07 -1.5836465894206983e-06 -2.8077772187381996e-06" pbc="F F F"
Mg       9.89769711       9.74968259       9.52249441    -223.85484721    -237.89595250    -219.69727634    -223.85484721    -237.89595250    -219.69727634
O       10.20543747      10.02435622       9.68780728     376.21446190     293.82458966      92.88368211     376.21446190     293.82458966      92.88368211
Mg      10.37159818      10.53639517      10.75616240      31.15449593      47.72467378      70.74769218      31.15449593      47.72467378      70.74769218
O        9.38546059       9.54104662       9.88886915    -183.51411061    -103.65331095      56.06590205    -183.51411061    -103.65331095      56.06590205
4
Lattice="20.0 0.0 0.0 0.0 20.0 0.0 0.0 0.0 20.0" Properties=species:S:1:pos:R:3:mace_mp_forces:R:3:forces:R:3 units="_JSON {\"energy\": \"eV\", \"forces\": \"ev/Ang\", \"stress\": \"ev/Ang^3\"}" model_path=/work/e05/e05/bcamino/mace/models/mace-mpa-0-medium.model arch=mace_mp mace_mp_energy=53.535850342748255 mace_mp_stress="-3.0301186316162876e-06 -2.942766569875869e-06 -1.781413906498313e-06 3.1216790310671965e-08 5.266975658035057e-07 9.586732303473122e-07" mace_energy=53.535850342748255 max_force=141.39279757420437 energy=53.535850342748255 free_energy=53.535850342748255 stress="-3.0301186316162876e-06 9.586732303473122e-07 5.266975658035057e-07 9.586732303473122e-07 -2.942766569875869e-06 3.1216790310671965e-08 5.266975658035057e-07 3.1216790310671965e-08 -1.781413906498313e-06" pbc="F F F"
Mg      10.68592246       9.51016560      10.12425094      67.61227815     -93.46812134      48.78070719      67.61227815     -93.46812134      48.78070719
O       10.32226372      10.32826807       9.65547453      56.78592372      70.20407725    -108.80565064      56.78592372      70.20407725    -108.80565064
Mg       9.55661331      10.58090478      10.31548340     -81.02507516      65.70036964      82.36149625     -81.02507516      65.70036964      82.36149625
O        9.30928625       9.53338169       9.67649978     -43.37312670     -42.43632555     -22.33655280     -43.37312670     -42.43632555     -22.33655280
4
Lattice="20.0 0.0 0.0 0.0 20.0 0.0 0.0 0.0 20.0" Properties=species:S:1:pos:R:3:mace_mp_forces:R:3:forces:R:3 units="_JSON {\"energy\": \"eV\", \"forces\": \"ev/Ang\", \"stress\": \"ev/Ang^3\"}" model_path=/work/e05/e05/bcamino/mace/models/mace-mpa-0-medium.model arch=mace_mp mace_mp_energy=63.10281725924585 mace_mp_stress="-2.456711242167892e-06 -9.327856935256185e-07 -1.2523455530832723e-06 -5.627456556992769e-07 1.539513413584681e-07 -6.494145568017329e-07" mace_energy=63.10281725924585 max_force=98.92572547542093 energy=63.10281725924585 free_energy=63.10281725924585 stress="-2.456711242167892e-06 -6.494145568017329e-07 1.539513413584681e-07 -6.494145568017329e-07 -9.327856935256185e-07 -5.627456556992769e-07 1.539513413584681e-07 -5.627456556992769e-07 -1.2523455530832723e-06" pbc="F F F"
Mg      10.04302374       9.53083494       9.05549191      76.80616539     -22.39828337     -42.68492404      76.80616539     -22.39828337     -42.68492404
O        9.38071351       9.77866526       9.49137300     -91.80156173      15.04424351      13.00847287     -91.80156173      15.04424351      13.00847287
Mg       9.96233929      10.15345435      10.73049956     -62.57952509     -53.70389600      23.32356260     -62.57952509     -53.70389600      23.32356260
O       10.61113919      10.70094901      10.83373965      77.57492144      61.05793586       6.35288857      77.57492144      61.05793586       6.35288857
4
Lattice="20.0 0.0 0.0 0.0 20.0 0.0 0.0 0.0 20.0" Properties=species:S:1:pos:R:3:mace_mp_forces:R:3:forces:R:3 units="_JSON {\"energy\": \"eV\", \"forces\": \"ev/Ang\", \"stress\": \"ev/Ang^3\"}" model_path=/work/e05/e05/bcamino/mace/models/mace-mpa-0-medium.model arch=mace_mp mace_mp_energy=62.32410442886054 mace_mp_stress="-6.119789209685077e-07 -1.7412807306787103e-06 -7.271915370023698e-07 6.79321959994838e-07 -3.359682407084347e-07 -2.879275835639321e-07" mace_energy=62.32410442886054 max_force=130.95265272930246 energy=62.32410442886054 free_energy=62.32410442886054 stress="-6.119789209685077e-07 -2.879275835639321e-07 -3.359682407084347e-07 -2.879275835639321e-07 -1.7412807306787103e-06 6.79321959994838e-07 -3.359682407084347e-07 6.79321959994838e-07 -7.271915370023698e-07" pbc="F F F"
Mg      10.18215097      10.51894168       9.56741267      -5.57565097    -113.71460745      32.47498599      -5.57565097    -113.71460745      32.47498599
O        9.35768267       9.48273483       9.92541914     -36.84852649      -3.42884166     -26.72291649     -36.84852649      -3.42884166     -26.72291649
Mg      10.06839015       9.12099743      10.87601809      24.52925226      -7.78096950      29.20874487      24.52925226      -7.78096950      29.20874487
O       10.26170593      11.06425435       9.40093972      17.89492521     124.92441862     -34.96081438      17.89492521     124.92441862     -34.96081438
4
Lattice="20.0 0.0 0.0 0.0 20.0 0.0 0.0 0.0 20.0" Properties=species:S:1:pos:R:3:mace_mp_forces:R:3:forces:R:3 units="_JSON {\"energy\": \"eV\", \"forces\": \"ev/Ang\", \"stress\": \"ev/Ang^3\"}" model_path=/work/e05/e05/bcamino/mace/models/mace-mpa-0-medium.model arch=mace_mp mace_mp_energy=39.586080499074114 mace_mp_stress="-1.8434635491253154e-06 -5.680526279918297e-07 -3.7193716389124804e-06 4.2592440044428696e-07 4.2601402560095334e-07 -1.27038299110503e-07" mace_energy=39.586080499074114 max_force=103.78547303664047 energy=39.586080499074114 free_energy=39.586080499074114 stress="-1.8434635491253154e-06 -1.27038299110503e-07 4.2601402560095334e-07 -1.27038299110503e-07 -5.680526279918297e-07 4.2592440044428696e-07 4.2601402560095334e-07 4.2592440044428696e-07 -3.7193716389124804e-06" pbc="F F F"
Mg      10.07700191       9.93336005       9.03732245      51.34282479     -16.00524215     -87.62814068      51.34282479     -16.00524215     -87.62814068
O       10.71834242      10.42491399      10.32938173      41.48342149      23.28877232       2.83100658      41.48342149      23.28877232       2.83100658
Mg       9.79390709       9.73141140      10.85019955       1.89134695     -42.99579827      94.44156157       1.89134695     -42.99579827      94.44156157
O        9.47776713      10.08435097       9.84149006     -94.71759323      35.71226810      -9.64442746     -94.71759323      35.71226810      -9.64442746
4
Lattice="20.0 0.0 0.0 0.0 20.0 0.0 0.0 0.0 20.0" Properties=species:S:1:pos:R:3:mace_mp_forces:R:3:forces:R:3 units="_JSON {\"energy\": \"eV\", \"forces\": \"ev/Ang\", \"stress\": \"ev/Ang^3\"}" model_path=/work/e05/e05/bcamino/mace/models/mace-mpa-0-medium.model arch=mace_mp mace_mp_energy=38.39497023057346 mace_mp_stress="-1.1367165339976795e-06 -4.870386665316014e-07 -2.2738004909278704e-06 1.2648211026801918e-07 1.1740309187962946e-07 4.192813078811217e-08" mace_energy=38.39497023057346 max_force=88.43264053434643 energy=38.39497023057346 free_energy=38.39497023057346 stress="-1.1367165339976795e-06 4.192813078811217e-08 1.1740309187962946e-07 4.192813078811217e-08 -4.870386665316014e-07 1.2648211026801918e-07 1.1740309187962946e-07 1.2648211026801918e-07 -2.2738004909278704e-06" pbc="F F F"
Mg       9.51893314      10.17471156       9.74513984     -55.54741587      42.64878738      36.39058005     -55.54741587      42.64878738      36.39058005
O        9.61259753       9.47953390      10.83121056      -5.03597416     -23.49041107      36.56476260      -5.03597416     -23.49041107      36.56476260
Mg      10.89439525      10.21105034      10.35565270      33.08175145       4.32099898       7.74602490      33.08175145       4.32099898       7.74602490
O        9.75949156       9.93443303       9.01566970      27.50163857     -23.47937529     -80.70136755      27.50163857     -23.47937529     -80.70136755
4
Lattice="20.0 0.0 0.0 0.0 20.0 0.0 0.0 0.0 20.0" Properties=species:S:1:pos:R:3:mace_mp_forces:R:3:forces:R:3 units="_JSON {\"energy\": \"eV\", \"forces\": \"ev/Ang\", \"stress\": \"ev/Ang^3\"}" model_path=/work/e05/e05/bcamino/mace/models/mace-mpa-0-medium.model arch=mace_mp mace_mp_energy=128.01329355254123 mace_mp_stress="-1.8872051549548689e-06 -5.999691076936431e-06 -1.523691181654305e-07 1.7020382262629423e-07 3.012874881895694e-07 2.1362920227526987e-06" mace_energy=128.01329355254123 max_force=696.756466510821 energy=128.01329355254123 free_energy=128.01329355254123 stress="-1.8872051549548689e-06 2.1362920227526987e-06 3.012874881895694e-07 2.1362920227526987e-06 -5.999691076936431e-06 1.7020382262629423e-07 3.012874881895694e-07 1.7020382262629423e-07 -1.523691181654305e-07" pbc="F F F"
Mg       9.60768316      10.53991551      10.18613247     160.05710344    -635.74730070      56.97198334     160.05710344    -635.74730070      56.97198334
O       10.62126870      10.16961226       9.85486240      62.91680776     -11.78454662     -17.97536855      62.91680776     -11.78454662     -17.97536855
Mg      10.31783401       8.74728086       9.80341304      -4.16306723     -12.82821660      -0.06110180      -4.16306723     -12.82821660      -0.06110180
O        9.49188244      10.91324868      10.16101962    -218.81084397     660.36006392     -38.93551299    -218.81084397     660.36006392     -38.93551299
4
Lattice="20.0 0.0 0.0 0.0 20.0 0.0 0.0 0.0 20.0" Properties=species:S:1:pos:R:3:mace_mp_forces:R:3:forces:R:3 units="_JSON {\"energy\": \"eV\", \"forces\": \"ev/Ang\", \"stress\": \"ev/Ang^3\"}" model_path=/work/e05/e05/bcamino/mace/models/mace-mpa-0-medium.model arch=mace_mp mace_mp_energy=86.32636598313435 mace_mp_stress="-1.481354440652487e-06 -6.284024897479623e-07 -2.474431399851418e-06 -6.043695418592881e-07 -5.9404800003363506e-08 -5.616924660128377e-09" mace_energy=86.32636598313435 max_force=98.52075234544985 energy=86.32636598313435 free_energy=86.32636598313435 stress="-1.481354440652487e-06 -5.616924660128377e-09 -5.9404800003363506e-08 -5.616924660128377e-09 -6.284024897479623e-07 -6.043695418592881e-07 -5.9404800003363506e-08 -6.043695418592881e-07 -2.474431399851418e-06" pbc="F F F"
Mg       9.99513618       9.90111734      10.57672337       1.63427067     -56.10535446      13.99437398       1.63427067     -56.10535446      13.99437398
O        9.58584544       9.85033912       9.08909854     -84.88931708      -8.28974752     -41.72090185     -84.88931708      -8.28974752     -41.72090185
Mg      10.35108054       9.92283013       9.33630743      95.09713782       8.11941232     -24.43252267      95.09713782       8.11941232     -24.43252267