4
Lattice="20.000173935280454 -7.30853031011824e-05 3.5195065618268175e-05 -7.308534017127474e-05 20.000029669454698 -3.451294631988922e-05 3.519468619290521e-05 -3.451254241915939e-05 20.00009581214635" Properties=species:S:1:pos:R:3:mace_mp_forces:R:3:forces:R:3 units="_JSON {\"energy\": \"eV\", \"forces\": \"ev/Ang\", \"stress\": \"ev/Ang^3\"}" model_path=/work/e05/e05/bcamino/mace/models/mace-mpa-0-medium.model arch=mace_mp mace_mp_energy=-16.017185623001357 mace_mp_stress="1.9606231813138468e-11 3.927301238152907e-12 -3.850078313156095e-12 8.156457823448691e-13 -1.6292484814049781e-12 -8.776953736022569e-12" mace_energy=15.12216657128368 max_force=0.0007447926910601383 initial_spacegroup="P1 (1)" final_spacegroup="P-1 (2)" converged=T time=3.8346104621887207 energy=-16.017185623001357 free_energy=-16.017185623001357 stress="1.9606231813138468e-11 -8.776953736022569e-12 -1.6292484814049781e-12 -8.776953736022569e-12 3.927301238152907e-12 8.156457823448691e-13 -1.6292484814049781e-12 8.156457823448691e-13 -3.850078313156095e-12" pbc="F F F"
Mg      11.20616110       9.45418318       9.67520568      -0.00055849       0.00019199       0.00045381      -0.00055849       0.00019199       0.00045381
O       10.28825423       9.83185517      11.27550488       0.00009685       0.00001344      -0.00035894       0.00009685       0.00001344      -0.00035894
Mg       8.86032958      10.49621631      10.24315758       0.00025179      -0.00017142       0.00041791       0.00025179      -0.00017142       0.00041791
O        9.77819076      10.11849626       8.64292970       0.00020985      -0.00003401      -0.00051279       0.00020985      -0.00003401      -0.00051279
4
Lattice="20.00021288442426 0.00011883890168741327 0.00020076972535196388 0.00011883780954904282 20.00018474429538 3.778305864839089e-05 0.00020077099930923596 3.778427213681751e-05 20.000217474035896" Properties=species:S:1:pos:R:3:mace_mp_forces:R:3:forces:R:3 units="_JSON {\"energy\": \"eV\", \"forces\": \"ev/Ang\", \"stress\": \"ev/Ang^3\"}" model_path=/work/e05/e05/bcamino/mace/models/mace-mpa-0-medium.model arch=mace_mp mace_mp_energy=-16.017185637231563 mace_mp_stress="-8.986197567187495e-13 8.22857381044858e-12 7.498018081709755e-12 -9.217127461150118e-12 1.0015733376486555e-12 -3.021163773742243e-12" mace_energy=65.94595787138717 max_force=0.00046290811111561876 initial_spacegroup="P1 (1)" final_spacegroup="P-1 (2)" converged=T time=0.9041383266448975 energy=-16.017185637231563 free_energy=-16.017185637231563 stress="-8.986197567187495e-13 -3.021163773742243e-12 1.0015733376486555e-12 -3.021163773742243e-12 8.22857381044858e-12 -9.217127461150118e-12 1.0015733376486555e-12 -9.217127461150118e-12 7.498018081709755e-12" pbc="F F F"
Mg       9.21099253       9.02455794       9.71254259       0.00024175       0.00020193      -0.00001014       0.00024175       0.00020193      -0.00001014
O       10.51808472       9.37603310      11.02176875      -0.00032389       0.00006529      -0.00027024      -0.00032389       0.00006529      -0.00027024
Mg      10.80589323      11.05301984      10.21498232       0.00033833       0.00010286       0.00017227       0.00033833       0.00010286       0.00017227
O        9.49892607      10.70152275       8.90570315      -0.00025619      -0.00037008       0.00010811      -0.00025619      -0.00037008       0.00010811
4
Lattice="20.000164328257945 4.773698028225224e-05 -6.912252401503421e-05 4.7738671022859215e-05 20.00001167875454 -1.794387073322272e-05 -6.912576205494176e-05 -1.7943104945225067e-05 19.999843953750016" Properties=species:S:1:pos:R:3:mace_mp_forces:R:3:forces:R:3 units="_JSON {\"energy\": \"eV\", \"forces\": \"ev/Ang\", \"stress\": \"ev/Ang^3\"}" model_path=/work/e05/e05/bcamino/mace/models/mace-mpa-0-medium.model arch=mace_mp mace_mp_energy=-16.01718560648658 mace_mp_stress="-1.4821691433226334e-11 2.336274265887567e-12 -5.687213955919554e-12 3.2814807626028365e-12 1.1306987864801268e-11 -1.221390990918723e-11" mace_energy=38.97673004393748 max_force=0.0009410881555348738 initial_spacegroup="P1 (1)" final_spacegroup="P-1 (2)" converged=T time=1.1429932117462158 energy=-16.01718560648658 free_energy=-16.01718560648658 stress="-1.4821691433226334e-11 -1.221390990918723e-11 1.1306987864801268e-11 -1.221390990918723e-11 2.336274265887567e-12 3.2814807626028365e-12 1.1306987864801268e-11 3.2814807626028365e-12 -5.687213955919554e-12" pbc="F F F"
Mg       9.06606695      10.91789283       9.99284170      -0.00051045      -0.00025973       0.00017741      -0.00051045      -0.00025973       0.00017741
O       10.85126330      10.79595403       9.40634221       0.00086899       0.00021901      -0.00028729       0.00086899       0.00021901      -0.00028729
Mg      10.94559312       9.09168472      10.20166594      -0.00046792       0.00009372      -0.00001001      -0.00046792       0.00009372      -0.00001001
O        9.16027457       9.21355088      10.78806263       0.00010938      -0.00005300       0.00011990       0.00010938      -0.00005300       0.00011990
4
Lattice="20.00029176775329 -9.208456230115126e-05 -0.000303930456549832 -9.208504746808098e-05 20.000217857737773 -8.094222872839682e-05 -0.00030392988259916306 -8.09428813596216e-05 20.000483034760638" Properties=species:S:1:pos:R:3:mace_mp_forces:R:3:forces:R:3 units="_JSON {\"energy\": \"eV\", \"forces\": \"ev/Ang\", \"stress\": \"ev/Ang^3\"}" model_path=/work/e05/e05/bcamino/mace/models/mace-mpa-0-medium.model arch=mace_mp mace_mp_energy=-16.01718564242558 mace_mp_stress="1.6581342275800752e-11 2.0340673189955603e-11 1.3347645482659051e-11 -1.0032589945999046e-12 -9.327474196568058e-12 -1.3579439673208983e-11" mace_energy=72.6667324856764 max_force=0.0006278700833194873 initial_spacegroup="P1 (1)" final_spacegroup="P-1 (2)" converged=T time=0.8571650981903076 energy=-16.01718564242558 free_energy=-16.01718564242558 stress="1.6581342275800752e-11 -1.3579439673208983e-11 -9.327474196568058e-12 -1.3579439673208983e-11 2.0340673189955603e-11 -1.0032589945999046e-12 -9.327474196568058e-12 -1.0032589945999046e-12 1.3347645482659051e-11" pbc="F F F"
Mg       9.06695633      10.69947362      10.58915313       0.00043404      -0.00042081      -0.00016956       0.00043404      -0.00042081      -0.00016956
O       10.08321859      10.93054435       9.02075593       0.00000552      -0.00017276       0.00014125       0.00000552      -0.00017276       0.00014125
Mg      10.94770672       9.30079986       9.39846321      -0.00038656       0.00028611       0.00025935      -0.00038656       0.00028611       0.00025935
O        9.93145403       9.06972213      10.96687243      -0.00005300       0.00030746      -0.00023103      -0.00005300       0.00030746      -0.00023103
4
Lattice="20.00007645325927 8.533867739794819e-05 -0.00010772910126633681 8.533940716634433e-05 19.999855563971025 -0.0002549529318036057 -0.0001077296298460262 -0.0002549537637228657 19.999996394580915" Properties=species:S:1:pos:R:3:mace_mp_forces:R:3:forces:R:3 units="_JSON {\"energy\": \"eV\", \"forces\": \"ev/Ang\", \"stress\": \"ev/Ang^3\"}" model_path=/work/e05/e05/bcamino/mace/models/mace-mpa-0-medium.model arch=mace_mp mace_mp_energy=-14.67985791763321 mace_mp_stress="5.871925174362758e-12 -6.396066852349614e-12 -1.5498011588400153e-11 1.0404854733771684e-11 6.643626009808248e-13 1.4188434799755266e-12" mace_energy=0.48103967450709195 max_force=0.0006474368934675543 initial_spacegroup="P1 (1)" final_spacegroup="P-1 (2)" converged=T time=1.0200843811035156 energy=-14.67985791763321 free_energy=-14.67985791763321 stress="5.871925174362758e-12 1.4188434799755266e-12 6.643626009808248e-13 1.4188434799755266e-12 -6.396066852349614e-12 1.0404854733771684e-11 6.643626009808248e-13 1.0404854733771684e-11 -1.5498011588400153e-11" pbc="F F F"
Mg      11.22271169      10.84423128       9.07351155      -0.00010547       0.00003142      -0.00009907      -0.00010547       0.00003142      -0.00009907
O       10.54415122       9.70622988      10.47744223      -0.00008713      -0.00023195       0.00031137      -0.00008713      -0.00023195       0.00031137
Mg       8.80165191       8.94161133      10.80259623       0.00001919      -0.00017989       0.00028206       0.00001919      -0.00017989       0.00028206
O        9.48022649      10.07959259       9.39868998       0.00017341       0.00038042      -0.00049436       0.00017341       0.00038042      -0.00049436
4
Lattice="19.999472329433267 0.0010605174576787807 -0.0003763349532713264 0.0010605632272355952 19.999138688441082 0.001370942148479096 -0.00037637884197748824 0.001371020341242428 19.999888661745683" Properties=species:S:1:pos:R:3:mace_mp_forces:R:3:forces:R:3 units="_JSON {\"energy\": \"eV\", \"forces\": \"ev/Ang\", \"stress\": \"ev/Ang^3\"}" model_path=/work/e05/e05/bcamino/mace/models/mace-mpa-0-medium.model arch=mace_mp mace_mp_energy=-14.679857908545513 mace_mp_stress="-7.066464999631042e-12 2.0188953020913624e-11 -1.2036719233513805e-12 2.464756790427189e-12 -4.174177784315133e-12 -5.125876546941405e-12" mace_energy=74.95123939419473 max_force=0.0004447052439381741 initial_spacegroup="P1 (1)" final_spacegroup="P-1 (2)" converged=T time=6.567456245422363 energy=-14.679857908545513 free_energy=-14.679857908545513 stress="-7.066464999631042e-12 -5.125876546941405e-12 -4.174177784315133e-12 -5.125876546941405e-12 2.0188953020913624e-11 2.464756790427189e-12 -4.174177784315133e-12 2.464756790427189e-12 -1.2036719233513805e-12" pbc="F F F"
Mg       9.72761392      11.73187630      10.21162463       0.00015793      -0.00031956       0.00001045       0.00015793      -0.00031956       0.00001045
O       10.66633114      10.04502972      10.22234558       0.00021775       0.00008815       0.00009569       0.00021775       0.00008815       0.00009569
Mg      10.17673394       8.28118453       9.60926570       0.00000576       0.00033681       0.00009672       0.00000576       0.00033681       0.00009672
O        9.23795104       9.96797015       9.59884979      -0.00038144      -0.00010541      -0.00020286      -0.00038144      -0.00010541      -0.00020286
4
Lattice="20.000177133741968 6.262820657158111e-05 -2.6195136300750847e-05 6.262942152106309e-05 19.999888347255045 7.7864152410746e-05 -2.6195870609326733e-05 7.78640033052753e-05 20.000139577571026" Properties=species:S:1:pos:R:3:mace_mp_forces:R:3:forces:R:3 units="_JSON {\"energy\": \"eV\", \"forces\": \"ev/Ang\", \"stress\": \"ev/Ang^3\"}" model_path=/work/e05/e05/bcamino/mace/models/mace-mpa-0-medium.model arch=mace_mp mace_mp_energy=-16.0171855874781 mace_mp_stress="1.6476562226137922e-11 1.8967768118433395e-12 4.2608979849201806e-12 -1.7105712751666145e-12 -3.204221904103667e-12 5.411135083792407e-12" mace_energy=20.473187915878057 max_force=0.0009930134424200778 initial_spacegroup="P1 (1)" final_spacegroup="P-1 (2)" converged=T time=0.7732689380645752 energy=-16.0171855874781 free_energy=-16.0171855874781 stress="1.6476562226137922e-11 5.411135083792407e-12 -3.204221904103667e-12 5.411135083792407e-12 1.8967768118433395e-12 -1.7105712751666145e-12 -3.204221904103667e-12 -1.7105712751666145e-12 4.2608979849201806e-12" pbc="F F F"
Mg      11.13135658      10.33382327      10.55439487      -0.00043172      -0.00040621       0.00075840      -0.00043172      -0.00040621       0.00075840
O        9.45581786       9.73171285      11.16780056       0.00036296       0.00039962      -0.00083345       0.00036296       0.00039962      -0.00083345
Mg       8.81629375       9.86248129       9.40141362       0.00008911      -0.00024505       0.00071178       0.00008911      -0.00024505       0.00071178
O       10.49184777      10.46438412       8.78810278      -0.00002035       0.00025163      -0.00063674      -0.00002035       0.00025163      -0.00063674
4
Lattice="19.999632379842424 0.0003084055843936004 -2.2014463936292764e-05 0.00030841796665723745 20.000345782440796 -0.0003148895317831753 -2.2002158981651283e-05 -0.00031487866885629044 19.99997870259974" Properties=species:S:1:pos:R:3:mace_mp_forces:R:3:forces:R:3 units="_JSON {\"energy\": \"eV\", \"forces\": \"ev/Ang\", \"stress\": \"ev/Ang^3\"}" model_path=/work/e05/e05/bcamino/mace/models/mace-mpa-0-medium.model arch=mace_mp mace_mp_energy=-16.017185649386615 mace_mp_stress="6.732239181991848e-12 1.6890415696085316e-13 1.0736492224609367e-11 -5.232672837834301e-12 -8.58563753490537e-12 3.620711157555579e-12" mace_energy=18.751857377362377 max_force=0.0004096976009574022 initial_spacegroup="P1 (1)" final_spacegroup="P-1 (2)" converged=T time=5.3439295291900635 energy=-16.017185649386615 free_energy=-16.017185649386615 stress="6.732239181991848e-12 3.620711157555579e-12 -8.58563753490537e-12 3.620711157555579e-12 1.6890415696085316e-13 -5.232672837834301e-12 -8.58563753490537e-12 -5.232672837834301e-12 1.0736492224609367e-11" pbc="F F F"
Mg       9.63172997       8.72766440       9.89381558       0.00014074       0.00003738      -0.00017175       0.00014074       0.00003738      -0.00017175
O       10.64333775       9.89847383       8.82052350      -0.00024859      -0.00014136       0.00029338      -0.00024859      -0.00014136       0.00029338
Mg      10.17447114      11.29807966       9.98983327      -0.00003564       0.00000981       0.00007647      -0.00003564       0.00000981       0.00007647
O        9.16288336      10.12727121      11.06312509       0.00014349       0.00009418      -0.00019810       0.00014349       0.00009418      -0.00019810
4
Lattice="19.99970967427505 -0.00029550812951337376 -0.00019220518601809777 -0.00029550493751423555 20.000897335606215 0.00018390715306971147 -0.00019220114601133442 0.0001839062950156282 19.999835222858277" Properties=species:S:1:pos:R:3:mace_mp_forces:R:3:forces:R:3 units="_JSON {\"energy\": \"eV\", \"forces\": \"ev/Ang\", \"stress\": \"ev/Ang^3\"}" model_path=/work/e05/e05/bcamino/mace/models/mace-mpa-0-medium.model arch=mace_mp mace_mp_energy=-14.46178363195848 mace_mp_stress="-5.940337630277516e-13 -5.2453287541575175e-12 -2.36098117587696e-13 -1.1134561868565987e-12 3.7505805090591196e-13 1.7658373843986785e-12" mace_energy=40.57376094448158 max_force=0.000666711289127928 initial_spacegroup="P1 (1)" final_spacegroup="P1 (1)" converged=T time=1.8466038703918457 energy=-14.46178363195848 free_energy=-14.46178363195848 stress="-5.940337630277516e-13 1.7658373843986785e-12 3.7505805090591196e-13 1.7658373843986785e-12 -5.2453287541575175e-12 -1.1134561868565987e-12 3.7505805090591196e-13 -1.1134561868565987e-12 -2.36098117587696e-13" pbc="F F F"
Mg       9.59118562      10.92147706      10.18685572       0.00032173      -0.00058205      -0.00004704       0.00032173      -0.00058205      -0.00004704
O       10.17788944       9.18145732       9.81787130      -0.00009803       0.00010722      -0.00006628      -0.00009803       0.00010722      -0.00006628
Mg      10.73850149       7.51844865       9.46484750      -0.00001726       0.00005106       0.00004540      -0.00001726       0.00005106       0.00004540
O        9.02051967      12.61530986      10.54627447      -0.00020644       0.00042376       0.00006792      -0.00020644       0.00042376       0.00006792
4
Lattice="12.372116008537386 9.756107170434882 -9.69528127672951 -28.34828135007793 44.79663564414441 -3.213868733072393 -6.985074691748643 4.333974861855239 15.68686283510078" Properties=species:S:1:pos:R:3:mace_mp_forces:R:3:forces:R:3 units="_JSON {\"energy\": \"eV\", \"forces\": \"ev/Ang\", \"stress\": \"ev/Ang^3\"}" model_path=/work/e05/e05/bcamino/mace/models/mace-mpa-0-medium.model arch=mace_mp mace_mp_energy=60.5180187650315 mace_mp_stress="-3.9959607389485455e-08 -1.4489987690795343e-09 -7.77104746807509e-08 -9.070660068844824e-09 5.4564567834194684e-08 6.290516213063315e-09" mace_energy=241.89113620886815 max_force=149.98610784986235 initial_spacegroup="P1 (1)" final_spacegroup="P1 (1)" converged=F time=35.40992307662964 energy=60.5180187650315 free_energy=60.5180187650315 stress="-3.9959607389485455e-08 6.290516213063315e-09 5.4564567834194684e-08 6.290516213063315e-09 -1.4489987690795343e-09 -9.070660068844824e-09 5.4564567834194684e-08 -9.070660068844824e-09 -7.77104746807509e-08" pbc="F F F"
Mg     -11.53613135      28.52539067       3.92782373     -87.94713344      12.90902265     120.16611262     -87.94713344      12.90902265     120.16611262
O      -11.22487631      28.48145176       3.47583564      88.69541089     -12.80839014    -120.27012005      88.69541089     -12.80839014    -120.27012005
Mg      -9.06646364      26.01244710      -0.66406174       0.15539889      -0.17858718      -0.41472130       0.15539889      -0.17858718      -0.41472130
O      -11.86864914      28.70904038       1.52491501      -0.90367633       0.07795466       0.51872873      -0.90367633       0.07795466       0.51872873
4
Lattice="19.99944996361219 -5.019341158406945e-05 6.239905012362096e-05 -5.019340602563713e-05 19.999956195910574 -2.3501218359040245e-05 6.240223293271397e-05 -2.3501594735265722e-05 20.000099766698646" Properties=species:S:1:pos:R:3:mace_mp_forces:R:3:forces:R:3 units="_JSON {\"energy\": \"eV\", \"forces\": \"ev/Ang\", \"stress\": \"ev/Ang^3\"}" model_path=/work/e05/e05/bcamino/mace/models/mace-mpa-0-medium.model arch=mace_mp mace_mp_energy=-14.67985792162018 mace_mp_stress="3.1123399492536666e-13 3.539911873566764e-12 1.0973229706180009e-11 5.908132122981144e-12 1.6661485998439267e-12 7.527258688759454e-13" mace_energy=-5.277563047895676 max_force=0.0005274105219557156 initial_spacegroup="P1 (1)" final_spacegroup="P-1 (2)" converged=T time=1.4724550247192383 energy=-14.67985792162018 free_energy=-14.67985792162018 stress="3.1123399492536666e-13 7.527258688759454e-13 1.6661485998439267e-12 7.527258688759454e-13 3.539911873566764e-12 5.908132122981144e-12 1.6661485998439267e-12 5.908132122981144e-12 1.0973229706180009e-11" pbc="F F F"
Mg      10.86555793       9.74096212      11.57503761       0.00002842      -0.00006516       0.00006625       0.00002842      -0.00006516       0.00006625
O        9.95246499      10.73591564      10.19558498      -0.00008833      -0.00017399      -0.00048999      -0.00008833      -0.00017399      -0.00048999
Mg       9.46131535      10.29254149       8.38203976       0.00007441       0.00008956       0.00036001       0.00007441       0.00008956       0.00036001
O       10.37405331       9.29747208       9.76165534      -0.00001449       0.00014959       0.00006373      -0.00001449       0.00014959       0.00006373
4
Lattice="20.00019404043965 -5.3745666820735464e-05 7.510087919612886e-05 -5.374718714993097e-05 20.000245531959756 -7.422804012164771e-05 7.510214206359454e-05 -7.422809670460543e-05 20.000034410774564" Properties=species:S:1:pos:R:3:mace_mp_forces:R:3:forces:R:3 units="_JSON {\"energy\": \"eV\", \"forces\": \"ev/Ang\", \"stress\": \"ev/Ang^3\"}" model_path=/work/e05/e05/bcamino/mace/models/mace-mpa-0-medium.model arch=mace_mp mace_mp_energy=-16.017185650473344 mace_mp_stress="-9.918194057628109e-12 -1.4038940803830901e-11 -8.727786011602969e-13 2.8403633408409758e-12 -1.0642106551379237e-12 -2.9679770601101047e-12" mace_energy=77.67393096032467 max_force=0.0004142858490008055 initial_spacegroup="P1 (1)" final_spacegroup="P-1 (2)" converged=T time=0.8824114799499512 energy=-16.017185650473344 free_energy=-16.017185650473344 stress="-9.918194057628109e-12 -2.9679770601101047e-12 -1.0642106551379237e-12 -2.9679770601101047e-12 -1.4038940803830901e-11 2.8403633408409758e-12 -1.0642106551379237e-12 2.8403633408409758e-12 -8.727786011602969e-13" pbc="F F F"
Mg      10.60415235      11.22603474       9.80423272       0.00015652       0.00035902      -0.00013505       0.00015652       0.00035902      -0.00013505
O        8.86519163      10.51754260       9.66279152      -0.00018409      -0.00002935       0.00005092      -0.00018409      -0.00002935       0.00005092
Mg       9.55551997       8.84614393      10.18802400      -0.00009115      -0.00018717      -0.00004823      -0.00009115      -0.00018717      -0.00004823
O       11.29450089       9.55462928      10.32936558       0.00011872      -0.00014251       0.00013236       0.00011872      -0.00014251       0.00013236
4
Lattice="20.000060292191524 -2.617341491538842e-05 7.599986693177946e-05 -2.617313379939048e-05 20.000203880898198 -0.00014970151769722105 7.599969710143841e-05 -0.00014970169708268885 20.000139309912576" Properties=species:S:1:pos:R:3:mace_mp_forces:R:3:forces:R:3 units="_JSON {\"energy\": \"eV\", \"forces\": \"ev/Ang\", \"stress\": \"ev/Ang^3\"}" model_path=/work/e05/e05/bcamino/mace/models/mace-mpa-0-medium.model arch=mace_mp mace_mp_energy=-16.017185655801736 mace_mp_stress="2.824152806182578e-13 7.680920898321715e-12 3.819975961627935e-12 -5.236996353744552e-12 8.488041682900184e-13 -9.468219192002283e-13" mace_energy=22.427861196381016 max_force=0.00032383738959174775 initial_spacegroup="P1 (1)" final_spacegroup="P-1 (2)" converged=T time=0.778693437576294 energy=-16.017185655801736 free_energy=-16.017185655801736 stress="2.824152806182578e-13 -9.468219192002283e-13 8.488041682900184e-13 -9.468219192002283e-13 7.680920898321715e-12 -5.236996353744552e-12 8.488041682900184e-13 -5.236996353744552e-12 3.819975961627935e-12" pbc="F F F"
Mg       9.62278900       8.73132355      10.15757076      -0.00000224       0.00028083      -0.00016125      -0.00000224       0.00028083      -0.00016125
O       10.83197223       9.88079680      11.03084466      -0.00003182      -0.00004028      -0.00000818      -0.00003182      -0.00004028      -0.00000818
Mg      10.39019924      11.21717468       9.77987001       0.00003277      -0.00000905       0.00003551       0.00003277      -0.00000905       0.00003551
O        9.18102318      10.06772074       8.90658172       0.00000130      -0.00023150       0.00013391       0.00000130      -0.00023150       0.00013391
4
Lattice="20.000813247265185 0.00011246872428894217 4.867960997492349e-05 0.00011245519238863396 20.000104737798434 1.8676127892166467e-05 4.867588893234285e-05 1.8679954181518156e-05 20.000254486967435" Properties=species:S:1:pos:R:3:mace_mp_forces:R:3:forces:R:3 units="_JSON {\"energy\": \"eV\", \"forces\": \"ev/Ang\", \"stress\": \"ev/Ang^3\"}" model_path=/work/e05/e05/bcamino/mace/models/mace-mpa-0-medium.model arch=mace_mp mace_mp_energy=-16.0171855313147 mace_mp_stress="-2.6660770994482535e-11 -1.2803208725059639e-12 -1.6774076256257382e-11 -4.463650045464927e-12 1.6681428754393996e-11 5.41983144204658e-12" mace_energy=168.2480234159458 max_force=0.00099598070321022 initial_spacegroup="P1 (1)" final_spacegroup="P-1 (2)" converged=T time=1.2512366771697998 energy=-16.0171855313147 free_energy=-16.0171855313147 stress="-2.6660770994482535e-11 5.41983144204658e-12 1.6681428754393996e-11 5.41983144204658e-12 -1.2803208725059639e-12 -4.463650045464927e-12 1.6681428754393996e-11 -4.463650045464927e-12 -1.6774076256257382e-11" pbc="F F F"
Mg       9.78059853       9.76197390       8.67821931       0.00052796       0.00031214       0.00018536       0.00052796       0.00031214       0.00018536
O       11.29438816       9.80622020       9.79742688       0.00026662      -0.00049707      -0.00082086       0.00026662      -0.00049707      -0.00082086
Mg      10.15042820      10.16377848      11.24976402       0.00001664       0.00045720       0.00074820       0.00001664       0.00045720       0.00074820
O        8.63672035      10.11997810      10.13056440      -0.00081122      -0.00027226      -0.00011270      -0.00081122      -0.00027226      -0.00011270
4
Lattice="20.000225136746117 -5.4491765042486336e-06 -0.00011160815326378832 -5.449338044512193e-06 20.000310490356767 -5.1049633867888644e-05 -0.00011160694711851305 -5.1048617476806234e-05 20.00006900996503" Properties=species:S:1:pos:R:3:mace_mp_forces:R:3:forces:R:3 units="_JSON {\"energy\": \"eV\", \"forces\": \"ev/Ang\", \"stress\": \"ev/Ang^3\"}" model_path=/work/e05/e05/bcamino/mace/models/mace-mpa-0-medium.model arch=mace_mp mace_mp_energy=-16.01718565251818 mace_mp_stress="-8.006151011740009e-12 1.0216508317579533e-11 -4.734844808776127e-13 -9.87511117963046e-13 1.9914785874922063e-12 2.023124823497833e-12" mace_energy=53.535850342748255 max_force=0.0003812161963296637 initial_spacegroup="P1 (1)" final_spacegroup="P-1 (2)" converged=T time=0.7233190536499023 energy=-16.01718565251818 free_energy=-16.01718565251818 stress="-8.006151011740009e-12 2.023124823497833e-12 1.9914785874922063e-12 2.023124823497833e-12 1.0216508317579533e-11 -9.87511117963046e-13 1.9914785874922063e-12 -9.87511117963046e-13 -4.734844808776127e-13" pbc="F F F"
Mg      10.84913355       9.03029213       9.75704885       0.00029060      -0.00003029      -0.00010149       0.00029060      -0.00003029      -0.00010149
O       10.91048219      10.90967556       9.65621700      -0.00008684      -0.00001236       0.00005041      -0.00008684      -0.00001236       0.00005041
Mg       9.08800811      10.94633307      10.12873233       0.00004126      -0.00023870      -0.00002721       0.00004126      -0.00023870      -0.00002721
O        9.02667792       9.06692725      10.22952321      -0.00024502       0.00028136       0.00007830      -0.00024502       0.00028136       0.00007830
4
Lattice="20.00035762104205 7.058524883960551e-05 -0.00011776273037261127 7.058569914572168e-05 19.999999883831578 -3.531086480983201e-05 -0.00011776204238534628 -3.5310724685619414e-05 20.00007562252259" Properties=species:S:1:pos:R:3:mace_mp_forces:R:3:forces:R:3 units="_JSON {\"energy\": \"eV\", \"forces\": \"ev/Ang\", \"stress\": \"ev/Ang^3\"}" model_path=/work/e05/e05/bcamino/mace/models/mace-mpa-0-medium.model arch=mace_mp mace_mp_energy=-16.017185650137932 mace_mp_stress="1.5202055915776544e-12 3.1693996664452014e-13 1.261130302346657e-11 1.9947134948669906e-12 -4.358905951332518e-12 -6.850165589603208e-13" mace_energy=63.10281725924585 max_force=0.0004237467465782302 initial_spacegroup="P1 (1)" final_spacegroup="P-1 (2)" converged=T time=0.8575911521911621 energy=-16.017185650137932 free_energy=-16.017185650137932 stress="1.5202055915776544e-12 -6.850165589603208e-13 -4.358905951332518e-12 -6.850165589603208e-13 3.1693996664452014e-13 1.9947134948669906e-12 -4.358905951332518e-12 1.9947134948669906e-12 1.261130302346657e-11" pbc="F F F"
Mg      10.54201304       9.89585056       8.83930453      -0.00029643      -0.00001472       0.00030245      -0.00029643      -0.00001472       0.00030245
O        8.83946853       9.53740568       9.55968264       0.00020106       0.00005848      -0.00002609       0.00020106       0.00005848      -0.00002609
Mg       9.45692244      10.18614099      11.21616639      -0.00012252      -0.00009415      -0.00020016      -0.00012252      -0.00009415      -0.00020016
O       11.15943248      10.54457644      10.49579581       0.00021789       0.00005039      -0.00007620       0.00021789       0.00005039      -0.00007620
4
Lattice="19.999935652304977 0.00023606228054769656 -0.0001705837275774278 0.0002360595281264889 20.000511483390113 -0.0005089104495857587 -0.00017058256200894713 -0.0005089139989872102 20.000287124406796" Properties=species:S:1:pos:R:3:mace_mp_forces:R:3:forces:R:3 units="_JSON {\"energy\": \"eV\", \"forces\": \"ev/Ang\", \"stress\": \"ev/Ang^3\"}" model_path=/work/e05/e05/bcamino/mace/models/mace-mpa-0-medium.model arch=mace_mp mace_mp_energy=-14.461783602513043 mace_mp_stress="-2.370301627703907e-14 -3.1708478491750293e-13 -1.8522980054444784e-13 2.435772922536625e-13 6.706246916513104e-14 -8.865678193586587e-14" mace_energy=62.32410442886054 max_force=0.00022024475960164878 initial_spacegroup="P1 (1)" final_spacegroup="P1 (1)" converged=T time=1.563317060470581 energy=-14.461783602513043 free_energy=-14.461783602513043 stress="-2.370301627703907e-14 -8.865678193586587e-14 6.706246916513104e-14 -8.865678193586587e-14 -3.1708478491750293e-13 2.435772922536625e-13 6.706246916513104e-14 2.435772922536625e-13 -1.8522980054444784e-13" pbc="F F F"
Mg      10.16787864      10.76554598       9.39007789       0.00009564      -0.00004831       0.00007546       0.00009564      -0.00004831       0.00007546
O        9.76315038       9.31567318      10.50454240       0.00004546       0.00003243      -0.00021305       0.00004546       0.00003243      -0.00021305
Mg       9.37658463       7.92940309      11.56911007      -0.00006369      -0.00001041       0.00012198      -0.00006369      -0.00001041       0.00012198
O       10.56232292      12.17679241       8.30526756      -0.00007741       0.00002629       0.00001560      -0.00007741       0.00002629       0.00001560
4
Lattice="20.000327535437 5.012494672489653e-06 -2.553938855187176e-05 5.01304683409387e-06 19.999974787624012 -4.338894507745234e-05 -2.5538971396499966e-05 -4.338923370249608e-05 20.000242817715886" Properties=species:S:1:pos:R:3:mace_mp_forces:R:3:forces:R:3 units="_JSON {\"energy\": \"eV\", \"forces\": \"ev/Ang\", \"stress\": \"ev/Ang^3\"}" model_path=/work/e05/e05/bcamino/mace/models/mace-mpa-0-medium.model arch=mace_mp mace_mp_energy=-16.017185645511038 mace_mp_stress="-5.131863550905581e-12 -2.9645249544850663e-13 -2.319156514094931e-11 2.0368705898530594e-12 -1.084905474237687e-12 -6.78019830154575e-13" mace_energy=39.586080499074114 max_force=0.0004582850626362652 initial_spacegroup="P1 (1)" final_spacegroup="P-1 (2)" converged=T time=0.75187087059021 energy=-16.017185645511038 free_energy=-16.017185645511038 stress="-5.131863550905581e-12 -6.78019830154575e-13 -1.084905474237687e-12 -6.78019830154575e-13 -2.9645249544850663e-13 2.0368705898530594e-12 -1.084905474237687e-12 2.0368705898530594e-12 -2.319156514094931e-11" pbc="F F F"
Mg      10.30145274      10.20763704       8.74198817       0.00008167      -0.00001758      -0.00042221       0.00008167      -0.00001758      -0.00042221
O       11.31779679      10.21172510      10.32722892       0.00002004       0.00006306       0.00010620       0.00002004       0.00006306       0.00010620