108
Lattice="9.45475454 0.0 0.0 -4.735606170593 8.185037112826 0.0 -0.006016216410776 -0.002263787790645 15.22207053277" Properties=species:S:1:pos:R:3:dft_forces:R:3:mace_mp_descriptors:R:1 dft_energy=-894418.505954 dft_stress="0.002085582596339 -6.02844503454e-05 -0.0004117577175682 -6.504396796718e-05 0.00159548588252 -0.0001735250231025 -0.0004107754321139 -0.0001721932595837 0.003830579054302" config_type=generated system_name=AlGaN_super3_all mace_mp_descriptor=0.02257201119471827 mace_mp_Ga_descriptor=-0.00174643602910485 mace_mp_N_descriptor=0.02572769468030349 mace_mp_Al_descriptor=0.024226046740550747 model_path=medium-0b3 arch=mace_mp pbc="T T T"
Al       1.56196160       0.87495221       2.39254316      -0.00022759       0.00041445      -0.00116402       0.02427967
Al       1.55893796       0.86400499       7.45893172       0.00138809       0.00106274       0.00198316       0.02473944
Al       1.55096314       0.86948119      -2.69112609       0.00057263       0.00491291       0.00054101       0.02438890
Al      -0.02148095       3.59926195       2.38100826       0.00017758       0.00062567       0.00070302       0.02423643
Al      -0.03206066       3.60443214       7.46052849       0.00123141       0.00003479       0.00051767       0.02436167
Al      -0.03187579       3.58451525      -2.68143757       0.00017143      -0.00037379      -0.00023858       0.02398356
Al       3.14752267      -1.86028039       2.41626992       0.00168431       0.00084164      -0.00073026       0.02445923
Al       3.13795118      -1.86308076       7.45834663       0.00238559      -0.00091102       0.00120479       0.02377911
Al       3.14317144      -1.85923867      -2.70461977       0.00066468      -0.00040595       0.00007403       0.02397758
Al      -4.76146572       0.86139684       2.39124628       0.00138003       0.00061057      -0.00068958       0.02368168
Al      -4.76417299       0.86473302       7.44851646       0.00114839       0.00008482       0.00073555       0.02421256
Al      -4.75649176       0.87254740      -2.67877215       0.00096344       0.00015679      -0.00032321       0.02425132
Al      -6.34770346       3.58595713       2.39075604       0.00135780       0.00134071       0.00030990       0.02386697
Al      -6.33890593       3.58525632       7.43706765      -0.00071001       0.00074774       0.00141935       0.02468943
Al      -6.32359886       3.58552732      -2.66660921       0.00085222       0.00002761      -0.00043931       0.02463371
Al      -3.18802367      -1.86295264       2.38203493       0.00308570       0.00154279      -0.00062058       0.02378614
Al      -3.18407299      -1.86115473       7.44739238      -0.00368977      -0.00261311       0.00226345       0.02460288
Ga      -3.18173565      -1.85093935      -2.66883507       0.00053371       0.00027619       0.00168822      -0.00163459
Al      -1.60684357       0.87685780       2.39588014      -0.00068065      -0.00192786      -0.00461922       0.02438041
Ga      -1.61712489       0.87691274       7.47756111       0.00089507       0.00005834       0.00104611      -0.00172839
Al      -1.59989296       0.89035251      -2.69036654       0.00026149       0.00069544      -0.00002809       0.02419177
Ga      -3.17593491       3.59356922       2.39309685       0.00145961       0.00032614      -0.00044628      -0.00185138
Al      -3.18617071       3.59684995       7.46105460       0.00123037      -0.00105200       0.00085696       0.02402180
Al      -3.17443756       3.59540430      -2.69134401       0.00050093       0.00036573      -0.00010090       0.02372518
Ga      -0.02766836      -1.84907807       2.39885611       0.00080315       0.00078348       0.00225044      -0.00162548
Ga      -0.02561422      -1.87164829       7.47306452       0.00073743       0.00025899      -0.00084449      -0.00196870
Ga      -0.01278137      -1.85119666      -2.69429002       0.00036741      -0.00062366       0.00130328      -0.00172780
Ga      -0.02487544       1.77759626       4.91552492      -0.00072311       0.00044185       0.00012812      -0.00184962
Al      -0.03846234       1.77098684      -5.21971336       0.00615955       0.00354613       0.00264879       0.02469744
Al      -0.03207715       1.78927189      -0.14476958       0.00250921      -0.00202091      -0.00207242       0.02374089
Al       3.13195833      -3.67140178       4.93981966      -0.00004088      -0.00028876      -0.00046892       0.02415013
Al       3.12823449      -3.68205355      -5.23169359       0.00000463       0.00120449       0.00075000       0.02383928
Al       3.14591246      -3.67935619      -0.16801523      -0.00049228       0.00200760       0.00416163       0.02395053
Al       1.58291175      -0.94932968       4.94516745      -0.00559919      -0.00172549      -0.00542568       0.02473291
Al       1.55374545      -0.95554065      -5.22773213       0.00505976       0.00213306       0.00181548       0.02460027
Ga       1.57882823      -0.94410069      -0.14086931      -0.00087389       0.00173254      -0.00473326      -0.00153386
Al       3.13061812       1.77470179       4.92408580       0.00064103       0.00134147       0.00028877       0.02379686
Ga       3.12977378       1.77083941      -5.22467530       0.00001036       0.00100467       0.00150958      -0.00197353
Al       3.13963684       1.79582549      -0.14471675      -0.00349086      -0.00303586      -0.00390091       0.02396400
Al       6.28159086      -3.67076101       4.92165742       0.00036774      -0.00001321      -0.00028301       0.02379678
Ga       6.28300392      -3.67598234      -5.23023856       0.00058725      -0.00015841       0.00064198      -0.00157101
Al       6.29023846      -3.68377330      -0.14152507      -0.00088567       0.00144057      -0.00037822       0.02400358
Al       4.70799520      -0.95200040       4.92301545       0.00056641       0.00035376      -0.00022713       0.02363662
Al       4.70816322      -0.94378426      -5.24042705      -0.00120685      -0.00137808       0.00104281       0.02415827
Al       4.70768267      -0.93761493      -0.12763244       0.00030093      -0.00212928      -0.00186148       0.02414827
Al      -3.18952903       1.77616322       4.92622508      -0.00270666       0.00093581       0.00054459       0.02425933
Al      -3.17788678       1.78484637      -5.21247002       0.00094661      -0.00023267      -0.00008658       0.02420161
Al      -3.17531862       1.78092518      -0.16733645      -0.00041179      -0.00032738       0.00172322       0.02369671
Al      -0.02650320      -3.68729964       4.93967006      -0.00078714       0.00425091      -0.00208345       0.02414235
Al      -0.00216833      -3.67148594      -5.22587227      -0.00203742      -0.00733475       0.00231447       0.02510978
Al      -0.02359537      -3.68470701      -0.15480734       0.00062724       0.00090008      -0.00041301       0.02466713
Al      -1.61699773      -0.94587641       4.92070979       0.00026623      -0.00391197      -0.00040778       0.02492576
Al      -1.59857878      -0.94109013      -5.22456235      -0.00100043       0.00095964       0.00241642       0.02487223
Al      -1.60070146      -0.92959766      -0.13820238      -0.00084607       0.00029186       0.00018535       0.02460587
N        1.59086024       0.84735978       4.30404277       0.00152458      -0.00067674      -0.00063871       0.02540040
N        1.50928224       0.84588442      -5.84665271      -0.00026199      -0.00109396      -0.00092977       0.02539118
N        1.55221412       0.92038470      -0.78757464      -0.00006627       0.00185560       0.00732949       0.02536075
N       -0.03268379       3.64430571       4.29815245       0.00025183       0.00032611       0.00034011       0.02516982
N       -0.06509308       3.57401066      -5.84636997      -0.00089874      -0.00042591      -0.00088284       0.02506787
N       -0.02319843       3.59662419      -0.75911057       0.00012872       0.00022551       0.00193355       0.02681025
N        3.13800796      -1.86430290       4.33305914      -0.00052595       0.00021234       0.00043257       0.02671869
N        3.13205601      -1.86197190      -5.83791572       0.00018824       0.00009254      -0.00028015       0.02605618
N        3.17946913      -1.87639836      -0.78965600       0.00223859      -0.00140157       0.00030784       0.02511506
N       -4.75839279       0.86761283       4.31708848       0.00057340       0.00000486      -0.00026304       0.02691866
N       -4.71347280       0.84869527      -5.85380022       0.00265658       0.00067252      -0.00192819       0.02563731
N       -4.75270697       0.86968154      -0.75705970       0.00081981       0.00050733       0.00173698       0.02637495
N       -6.33626904       3.59498274       4.32093326       0.00031627      -0.00023523      -0.00031774       0.02624838
N       -6.28794493       3.61982576      -5.87705652       0.00116998       0.00044752      -0.00067446       0.02447596
N       -6.32459353       3.60228564      -0.75244031      -0.00064611       0.00025067       0.00095616       0.02700858
N       -3.17743648      -1.86180777       4.31014376      -0.00043168       0.00017449      -0.00058328       0.02689329
N       -3.16956506      -1.81443750      -5.85452654       0.00008408       0.00141443      -0.00091604       0.02523130
N       -3.16791388      -1.84915485      -0.68830221      -0.00172765      -0.00152547       0.00039701       0.02581603
N       -1.65592814       0.84535439       4.30052013       0.00231563       0.00291652       0.00156254       0.02508619
N       -1.58660537       0.88014046      -5.77006703      -0.00919193      -0.00334949      -0.00181246       0.02612349
N       -1.59930334       0.87990576      -0.76463620       0.00062219       0.00007634      -0.00005632       0.02639698
N       -3.18039699       3.60171381       4.37101513       0.00038229      -0.00060864       0.00083390       0.02530566
N       -3.17652936       3.59979019      -5.83189541       0.00008055      -0.00108965      -0.00096132       0.02644621
N       -3.17610962       3.60723445      -0.76336393       0.00066940      -0.00104690       0.00103190       0.02591357
N       -0.02691191      -1.84089068       4.38229919       0.00348806      -0.00501146       0.00210338       0.02523157
N       -0.01842431      -1.86658040      -5.75867717      -0.00161971       0.00405987      -0.00476594       0.02540374
N       -0.05503186      -1.86848309      -0.71776661      -0.00052120      -0.00169656      -0.00037002       0.02431510
N       -0.02481499       1.77560832       1.79144985       0.00022807       0.00036514      -0.00032290       0.02575260
N        0.01442313       1.79448829       6.88366482      -0.00136303       0.00082614      -0.00035634       0.02442093
N       -0.02165891       1.77724269      -3.29586058       0.00000313       0.00106360      -0.00025148       0.02669923
N        3.17878676      -3.64435028       1.78091176      -0.00218878      -0.00304885      -0.00833659       0.02527442
N        3.12934765      -3.68274888       6.86124065      -0.00043260       0.00080848      -0.00026302       0.02620562
N        3.13749408      -3.68195405      -3.30164904      -0.00024923       0.00040746       0.00026000       0.02603587
N        1.61436632      -0.93103963       1.81383705      -0.00276737       0.00105786       0.00582278       0.02439997
N        1.59647686      -0.93791365       6.84750697      -0.00058271       0.00176302       0.00142955       0.02538946
N        1.60824563      -0.91821532      -3.31064845      -0.00120739      -0.00289710      -0.00106399       0.02506554
N        3.12555484       1.77723796       1.77690187       0.00100878       0.00103087       0.00111235       0.02661694
N        3.12177425       1.77328340       6.84937743      -0.00051406      -0.00134158      -0.00103515       0.02663323
N        3.12830814       1.77964296      -3.24553761       0.00021747       0.00002455      -0.00006092       0.02609329
N        6.28035357      -3.68627918       1.78455069       0.00197644       0.00108846      -0.00034626       0.02677774
N        6.27771780      -3.67826956       6.85011399      -0.00055640      -0.00029690      -0.00080379       0.02621699
N        6.29026403      -3.72381201      -3.25453449      -0.00102407      -0.00027451       0.00057025       0.02428155
N        4.69620623      -0.94982827       1.79224095       0.00119610       0.00096735       0.00096499       0.02708011
N        4.70749237      -0.95065142       6.84711119      -0.00210151      -0.00046502      -0.00070694       0.02675105
N        4.67630634      -0.92248243      -3.32058882      -0.00142634       0.00060462      -0.00164041       0.02536517
N       -3.17937917       1.73498063       1.76201356      -0.00126021      -0.00031486      -0.00183450       0.02554612
N       -3.22028588       1.79883223       6.84148340      -0.00101610       0.00057576      -0.00135893       0.02569473
N       -3.18205928       1.78332869      -3.28883590      -0.00056014      -0.00012866       0.00092054       0.02667114
N       -0.05850875      -3.69695587       1.75382822      -0.00216062      -0.00226849       0.00090382       0.02427835
N       -0.02503983      -3.72713547       6.84599766       0.00033404      -0.00025055      -0.00101059       0.02590117
N       -0.01832173      -3.72104002      -3.30719912      -0.00028635      -0.00184076      -0.00036153       0.02526478
N       -1.62834568      -0.91554894       1.77017899      -0.00453579      -0.00137518       0.00245893       0.02571857
N       -1.64652846      -0.97550777       6.83185192       0.00287911       0.00268856      -0.00207247       0.02462542
N       -1.60054917      -0.89534710      -3.31934924      -0.00071858      -0.00109237      -0.00068432       0.02461834
108
Lattice="9.47756369 0.0 0.0 -4.74087102584 8.20428707179 0.0 -0.001889322458504 -0.00159015834172 15.30038189072" Properties=species:S:1:pos:R:3:dft_forces:R:3:mace_mp_descriptors:R:1 dft_energy=-1123292.54725 dft_stress="-0.008752827660732 0.005233913318077 -0.0004783363896602 0.005221397967508 -0.004792608058394 -0.0008022360918025 -0.0004733033703608 -0.0007902608300078 0.000661533028088" config_type=generated system_name=AlGaN_super3_all mace_mp_descriptor=0.021057675223555016 mace_mp_Ga_descriptor=-0.0013985288881976882 mace_mp_N_descriptor=0.02512646659741638 mace_mp_Al_descriptor=0.024060965671959565 model_path=medium-0b3 arch=mace_mp pbc="T T T"
Al       1.56021977       0.89778765       2.47921459      -0.00270538      -0.01464164      -0.00862050       0.02420516
Al       1.56308937       0.89042573       7.49954231      -0.00112719      -0.00813272       0.00091699       0.02469213
Al       1.57448702       0.89562417      -2.74171615      -0.00445934      -0.00897818      -0.00642742       0.02436783
Al      -0.00526387       3.60557595       2.47850671      -0.00067658       0.00139978      -0.00945252       0.02486622
Al      -0.00361768       3.60894168       7.50904434      -0.00223682      -0.00159415      -0.00139847       0.02419674
Al      -0.00456158       3.60555521      -2.75457136      -0.00161737      -0.00170150      -0.00370148       0.02420514
Al       3.16861151      -1.88175825       2.48627582       0.00038741       0.00390716      -0.01159607       0.02506894
Al       3.17045471      -1.88359863       7.50581662      -0.00330549       0.00267107      -0.00030457       0.02447951
Al       3.17339157      -1.88372608      -2.76003557      -0.00348137       0.00233870      -0.00358263       0.02444563
Al      -4.79057293       0.88431685       2.47967496       0.00732745      -0.00479164      -0.01057690       0.02425777
Al      -4.78582511       0.89782406       7.50468977       0.00087423      -0.01203096      -0.00082152       0.02422589
Al      -4.78252494       0.90134760      -2.76105121       0.00111041      -0.01078576       0.00041569       0.02435396
Al      -6.34869207       3.60307417       2.47856663      -0.00098312       0.00599965      -0.01155585       0.02435095
Al      -6.35249048       3.60928021       7.50885550       0.00033106      -0.00037740      -0.00016402       0.02423535
Ga      -6.34890023       3.60959023      -2.75754697       0.00003335      -0.00130088       0.00238787      -0.00136572
Al      -3.17519219      -1.87326047       2.47701900       0.00051751       0.00194627      -0.00871962       0.02525364
Al      -3.17652458      -1.88297697       7.50328285      -0.00149454       0.00178036       0.00093657       0.02445775
Ga      -3.17468662      -1.88193938      -2.75494390      -0.00092902       0.00205144      -0.00129723      -0.00078874
Al      -1.64990299       0.90024376       2.48436388       0.01268518      -0.00786477      -0.01214884       0.02428418
Ga      -1.65281417       0.90178986       7.51525506       0.01475013      -0.00842580      -0.00687905      -0.00153564
Ga      -1.64589149       0.90415714      -2.75916380       0.01514811      -0.00673692      -0.00563114      -0.00212356
Ga      -3.21677579       3.61121908       2.46610576       0.01392386       0.00776024      -0.00956808      -0.00108850
Al      -3.21775271       3.61126113       7.51422294       0.01125840       0.00480220      -0.00081577       0.02424718
Al      -3.21825699       3.61103745      -2.75553692       0.01102292       0.00440784      -0.00134173       0.02367057
Al      -0.04424788      -1.88046931       2.48888177       0.01110153       0.00610569      -0.01341027       0.02458174
Ga      -0.04216064      -1.88027069       7.51641494       0.01368162       0.00968854      -0.00454061      -0.00130600
Al      -0.04020484      -1.88174289      -2.75634461       0.01138507       0.00705901      -0.00307116       0.02449709
Al      -0.00285633       1.80081109       4.99515637      -0.01103257      -0.00714242      -0.00375664       0.02386789
Al      -0.01956538       1.79519274      -5.29166547      -0.00205157      -0.00440426       0.00225422       0.02471370
Al      -0.01235218       1.79903514      -0.22590760      -0.00805380      -0.00608733       0.02483045       0.02287284
Ga       3.17024344      -3.69286572       4.99635767      -0.01290970      -0.00703477      -0.00434783      -0.00184120
Al       3.17326466      -3.69265414      -5.27373335      -0.01063155      -0.00570690      -0.00241552       0.02385832
Al       3.17425177      -3.68663721      -0.24732562      -0.01124991      -0.00543051       0.02895627       0.02247439
Al       1.60450438      -0.97772253       4.99604891      -0.01270703       0.00802748      -0.00381900       0.02325781
Ga       1.60680222      -0.97971028      -5.26958710      -0.01433745       0.01040053      -0.00658169      -0.00139886
Al       1.60319744      -0.98144939      -0.24613248      -0.01276527       0.00731134       0.02730990       0.02207799
Al       3.12515025       1.80044953       4.99442859      -0.00019704      -0.00305936      -0.00139783       0.02383995
Ga       3.12917844       1.80410505      -5.27817286      -0.00181668      -0.00333001      -0.00075079      -0.00143828
Al       3.11476710       1.78987065      -0.18483181       0.00616754       0.00194615       0.01643799       0.02324718
Al       6.30130874      -3.69256393       4.99324848      -0.00061067       0.00084417      -0.00123018       0.02352860
Al       6.30234790      -3.69399959      -5.27882450      -0.00029883      -0.00046540       0.00077078       0.02438401
Ga       6.30447767      -3.69123300      -0.22899941       0.00121007      -0.00036783       0.03626047      -0.00159136
Al       4.73480213      -0.98046622       4.99589328      -0.00085299       0.01109212      -0.00296924       0.02338190
Ga       4.73972083      -0.97990635      -5.27349198      -0.00054947       0.01544820      -0.00357815      -0.00129568
Ga       4.73662145      -0.97273697      -0.23225804       0.00042058       0.01757733       0.03316394      -0.00181640
Ga      -3.22064235       1.80101754       4.99594591       0.00324941      -0.00207869      -0.00141416      -0.00117254
Al      -3.21580157       1.80689222      -5.27313020       0.00268830      -0.00193991      -0.00275706       0.02512995
Al      -3.21002927       1.81646398      -0.19711021       0.00104837      -0.00657923       0.01692069       0.02369077
Ga      -0.04537925      -3.69059763       4.99637808       0.00222796       0.00170867      -0.00046434      -0.00130052
Al      -0.04042858      -3.68751944      -5.27456936       0.00199184      -0.00135728      -0.00073770       0.02476863
Al      -0.03377599      -3.68133581      -0.21946316      -0.00142229      -0.00215845       0.02392152       0.02349239
Al      -1.61004044      -0.97853436       4.99419365       0.00008125       0.01294048      -0.00298988       0.02383120
Ga      -1.60423185      -0.97777310      -5.27060218       0.00048362       0.01626600      -0.00414118      -0.00091493
Al      -1.60332642      -0.97453574      -0.24674105       0.00043435       0.01362562       0.02898255       0.02301679
N        1.56054073       0.89931854       4.39858629      -0.00000757      -0.01219950       0.00321845       0.02718573
N        1.55924576       0.90048415      -5.87555105      -0.01884125      -0.00688923      -0.01137623       0.02402742
N        1.55714132       0.89649926      -0.82296352       0.00054541      -0.01187841       0.00631485       0.02573856
N       -0.00249717       3.60619829       4.39758977       0.01602730      -0.01028536      -0.00585177       0.02545403
N       -0.00481991       3.60721812      -5.87514984      -0.00202157       0.00116446       0.00051090       0.02686595
N       -0.00618740       3.60719078      -0.83514714      -0.01862620      -0.00994141      -0.00279885       0.02440151
N        3.16944141      -1.88088223       4.40134172      -0.00249159       0.02185686      -0.00501101       0.02537787
N        3.17249139      -1.88836430      -5.86688275      -0.00282177      -0.01811324      -0.01590809       0.02363654
N        3.17066115      -1.88102729      -0.84224046      -0.01911554      -0.00860492      -0.00194955       0.02462562
N       -4.78966413       0.89456471       4.39849361      -0.01601678      -0.02140925      -0.00467563       0.02532763
N       -4.77963730       0.90116213      -5.87594663       0.01934462      -0.00596387      -0.00998999       0.02414027
N       -4.78402100       0.90854010      -0.84500308       0.00079345       0.00540486       0.00687067       0.02548612
N       -6.35373613       3.60632286       4.39780042      -0.01732612      -0.00986074      -0.00780455       0.02547145
N       -6.34834747       3.61465564      -5.87450308       0.00022184       0.02146551      -0.00660521       0.02559739
N       -6.34584023       3.60767406      -0.83476157       0.01747543      -0.01152523       0.02296627       0.02416555
N       -3.17726357      -1.88312429       4.39740502      -0.00113485       0.00120756       0.00185094       0.02637723
N       -3.17095031      -1.88520428      -5.87038325      -0.00101644      -0.01795982      -0.01618721       0.02369040
N       -3.17177210      -1.87879758      -0.83303125       0.01636597       0.01198935       0.01215561       0.02279920
N       -1.64997232       0.89882747       4.40020290       0.02889756      -0.01627627      -0.00194631       0.02482163
N       -1.63660519       0.90933785      -5.86441047       0.00531462       0.00644774       0.01929706       0.02395725
N       -1.63521062       0.90611975      -0.83839642       0.00617230      -0.00769430       0.03208674       0.02498393
N       -3.22248158       3.60863272       4.39357421       0.01404195       0.00729297       0.00324231       0.02270662
N       -3.21665042       3.61328617      -5.86965280       0.01116670       0.00537724       0.00332248       0.02711121
N       -3.21615595       3.61476000      -0.83016355       0.01205791       0.00580004       0.00464291       0.02593715
N       -0.04463592      -1.87875129       4.40192541       0.01142959       0.02538454      -0.00329088       0.02491635
N       -0.04108244      -1.88721561      -5.86477549       0.01385219      -0.00986769       0.01082114       0.02316840
N       -0.04181030      -1.88141498      -0.83868031       0.01048762       0.00676978       0.00574700       0.02644595
N       -0.00405381       1.79992973       1.87563998      -0.00988151      -0.00584854      -0.02219111       0.02587978
N       -0.00050779       1.80137414       6.91110566       0.00313797       0.00176960      -0.00285476       0.02528224
N        0.00762167       1.80571731      -3.36424605       0.00403726      -0.00067484      -0.00077990       0.02571707
N        3.17903323      -3.68242145       1.89494176       0.00345512       0.00213492      -0.03297695       0.02451528
N        3.17118895      -3.69279986       6.91744892      -0.01251398      -0.00499248       0.02460378       0.02540219
N        3.17302974      -3.69285516      -3.35445537      -0.01151695      -0.00432164       0.00429800       0.02666660
N        1.60358127      -0.98145129       1.89595883      -0.01185651       0.00787409      -0.02302692       0.02573584
N        1.60554390      -0.95493836       6.92649767       0.00289920       0.00605661      -0.00635435       0.02492686
N        1.60337060      -0.96726889      -3.34817766      -0.01045830       0.00341257       0.02876134       0.02580657
N        3.12698236       1.79564103       1.87499261       0.00080754      -0.00036785      -0.02326353       0.02622575
N        3.12667117       1.80053524       6.91091808       0.00193206      -0.00017461      -0.00051053       0.02692307
N        3.12993058       1.79959025      -3.35676286       0.00111750      -0.02204968       0.01522006       0.02471959
N        6.29722506      -3.67418560       1.85803087       0.00261903      -0.00570044      -0.00538559       0.02580094
N        6.30145453      -3.69126575       6.91165677       0.00101409      -0.00023632       0.00057158       0.02684705
N        6.29897365      -3.69256158      -3.35374257      -0.01683366      -0.00991870      -0.01502386       0.02386019
N        4.74955965      -0.94958892       1.87181554      -0.00686033       0.00275750      -0.00750391       0.02566802
N        4.73571320      -0.98033771       6.91063606      -0.00078124       0.01253125       0.00291561       0.02625436
N        4.73659610      -0.97528434      -3.35287383      -0.01894267       0.02208908       0.01727750       0.02369828
N       -3.20300636       1.80640893       1.83508282      -0.00307350      -0.02410257      -0.02292714       0.02452833
N       -3.22149962       1.80598574       6.91936259      -0.01470153       0.00838400       0.01366237       0.02460405
N       -3.21800388       1.80638863      -3.35583542      -0.01472996       0.00808731      -0.00719897       0.02512486
N       -0.03597946      -3.68693483       1.83555861      -0.01942622       0.00984392      -0.02323987       0.02472602
N       -0.03954108      -3.69182792       6.91805344       0.00118046      -0.02009717       0.01446825       0.02464973
N       -0.03904446      -3.68781334      -3.35588418       0.01942874       0.01087741      -0.00630727       0.02569829
N       -1.60578764      -0.97544542       1.89513177       0.00070372       0.01263400      -0.02568048       0.02658275
N       -1.61520083      -0.98252609       6.92321995      -0.01477929       0.00727687      -0.01416081       0.02348975
N       -1.60371416      -0.97983258      -3.35167300       0.01820967       0.00646262       0.01246613       0.02307877
108
Lattice="9.69440019 0.0 0.0 -4.856146729827 8.379572192723 0.0 -0.1381829259912 -0.07084762232362 15.76005349606" Properties=species:S:1:pos:R:3:dft_forces:R:3:mace_mp_descriptors:R:1 dft_energy=-2771212.976356 dft_stress="-0.0001282504065068 2.252115550778e-05 -0.004827100071457 1.815953749946e-05 0.0001614329865063 -0.002261528792886 -0.004816074771041 -0.002241904074169 0.00499193680259" config_type=generated system_name=AlGaN_super3_all mace_mp_descriptor=0.008811642971542093 mace_mp_Ga_descriptor=-0.0017663456225944208 mace_mp_N_descriptor=0.017848780322321043 mace_mp_Al_descriptor=0.02596897675784174 model_path=medium-0b3 arch=mace_mp pbc="T T T"
Al       1.53039111       0.83704678       2.48126010       0.00097613       0.00013917       0.00135689       0.02596156
Al       1.51380905       0.84496813       7.72451357       0.00128490       0.00108516       0.00194301       0.02594400
Ga       1.63934283       0.92799977      -2.77965429       0.00124201      -0.00088349       0.00154045      -0.00173025
Ga      -0.08975940       3.62154262       2.49332954       0.00024313       0.00191509      -0.00119136      -0.00160050
Ga      -0.09667808       3.62911684       7.72561603       0.00036427      -0.00005756       0.00058407      -0.00182919
Ga       0.02319132       3.71759630      -2.77042154       0.00053372      -0.00004435       0.00221648      -0.00193511
Ga       3.14157446      -1.95777014       2.49150713       0.00081091       0.00014004      -0.00038339      -0.00158816
Ga       3.13491367      -1.93740254       7.72539602       0.00078348      -0.00092894       0.00077772      -0.00182647
Ga       3.26492351      -1.86416649      -2.77780499       0.00052098      -0.00092772       0.00096335      -0.00192436
Ga      -4.94252631       0.84595104       2.49129905       0.00113442      -0.00097408      -0.00111758      -0.00159251
Ga      -4.95995949       0.85323935       7.72724630       0.00106605      -0.00051220      -0.00019579      -0.00182755
Ga      -4.82627606       0.93623113      -2.77670167       0.00047183      -0.00115073      -0.00012072      -0.00192862
Ga      -6.54610448       3.62033058       2.49063775      -0.00009740       0.00092761      -0.00060371      -0.00159915