108
Lattice="9.5344926 0.0 0.0 -4.771196117219 8.251723203939 0.0 -0.0001222824893569 0.01405697836054 15.3983903933" Properties=species:S:1:pos:R:3:dft_forces:R:3:mace_mp_descriptors:R:1 dft_energy=-1581050.473103 dft_stress="-0.0003225779261661 -0.0002575419637349 7.111489540805e-05 -0.000261896271527 -0.0009334245717284 0.0005898382329685 8.064945857968e-05 0.0005720717244576 -0.0007256914165065" config_type=generated system_name=AlGaN_super3_all mace_mp_descriptor=0.018576712669554178 mace_mp_Ga_descriptor=-0.0011886014554733705 mace_mp_N_descriptor=0.02412962617564129 mace_mp_Al_descriptor=0.025275868662553647 model_path=medium-0b3 arch=mace_mp pbc="T T T"
Al       1.55654701       0.88949770       2.40145324       0.00030973      -0.00080053       0.00018326       0.02475315
Al       1.56241359       0.89944618       7.56002853       0.00015382       0.00023792       0.00019785       0.02556395
Al       1.55539232       0.87461281      -2.70697183       0.00023591       0.00015337      -0.00103200       0.02537666
Al      -0.03484989       3.61670064       2.41914387       0.00232600      -0.00095966       0.00057158       0.02482254
Al      -0.02675887       3.61833437       7.54364629      -0.00088465      -0.00009298       0.00221515       0.02520280
Ga      -0.04426145       3.61226179      -2.71718453      -0.00007602      -0.00000898      -0.00001244      -0.00130119
Al       3.16679538      -1.87347068       2.42318235      -0.00028683       0.00073222       0.00017824       0.02522355
Ga       3.15694466      -1.87292916       7.56175119       0.00007390      -0.00011953       0.00010656      -0.00106387
Al       3.15107456      -1.88910460      -2.72812297      -0.00001031       0.00001291      -0.00006476       0.02586638
Al      -4.78072639       0.88467391       2.41052764      -0.00261117      -0.00244263      -0.00048771       0.02505060
Al      -4.79053514       0.90364579       7.56253285       0.00073389       0.00026225       0.00036800       0.02563527
Ga      -4.79464614       0.87772434      -2.71678024       0.00035934      -0.00002251      -0.00015690      -0.00122787
Ga      -6.37637638       3.62618051       2.42044828       0.00004574       0.00017937       0.00047248      -0.00159271
Ga      -6.38280520       3.62239230       7.53989287       0.00003316       0.00031117       0.00013999      -0.00143920
Ga      -6.37295055       3.61703857      -2.70023186      -0.00009317      -0.00029691       0.00013588      -0.00108630
Al      -3.21505992      -1.86908755       2.43205641      -0.00013514      -0.00003331      -0.00010370       0.02538491
Ga      -3.20323530      -1.86754360       7.55357737       0.00005859      -0.00009145       0.00050642      -0.00061801
Al      -3.18971710      -1.86350433      -2.71875041      -0.00010166       0.00008828      -0.00005590       0.02592148
Al      -1.61402364       0.89950822       2.42114944       0.00177589       0.00013222       0.00277773       0.02462120
Ga      -1.61754500       0.91247297       7.55843677       0.00016058      -0.00019524      -0.00019026      -0.00180462
Al      -1.60398411       0.87275845      -2.73933551       0.00025927       0.00039445      -0.00006641       0.02528381
Al      -3.19648570       3.61966075       2.42910225      -0.00208663       0.00191985       0.00003285       0.02518462
Al      -3.20049538       3.61979592       7.55058111       0.00055486      -0.00035891      -0.00126302       0.02514350
Al      -3.19397576       3.63062251      -2.72039702       0.00059442      -0.00016824      -0.00127480       0.02530506
Ga      -0.01256525      -1.87751948       2.41159855       0.00044318      -0.00004892       0.00027025      -0.00112188
Ga      -0.01683855      -1.86291143       7.56058373       0.00024021      -0.00026345       0.00030976      -0.00067904
Al      -0.02359523      -1.86864688      -2.70985257       0.00004526       0.00001320       0.00004720       0.02523133
Al      -0.02131040       1.80936494       4.97665341       0.00000741      -0.00027596       0.00001584       0.02488668
Al      -0.02767021       1.78075000      -5.28387043       0.00099227       0.00281618       0.00023444       0.02459496
Al      -0.01982716       1.78417767      -0.14586745       0.00031017       0.00004432       0.00060024       0.02483129
Ga       3.15810535      -3.73059471       4.96954561      -0.00046794       0.00048299       0.00069969      -0.00194570
Al       3.15274864      -3.73876171      -5.28784330       0.00048596       0.00012771       0.00018522       0.02513369
Ga       3.14531312      -3.71868272      -0.12594962       0.00001458       0.00041075       0.00016822      -0.00107516
Ga       1.56413395      -0.93949207       4.97976131      -0.00043846       0.00022389       0.00018338      -0.00083187
Ga       1.56309800      -0.94277123      -5.25051580      -0.00018130       0.00048002       0.00019758      -0.00153608
Ga       1.57307534      -0.94810598      -0.16346974      -0.00071278       0.00032783       0.00001122      -0.00141654
Ga       3.15252620       1.79900476       4.97864865      -0.00031173       0.00012210       0.00047716      -0.00125857
Al       3.14623489       1.78079398      -5.29346194       0.00017039       0.00000381       0.00032766       0.02528317
Al       3.14225140       1.79276118      -0.12996727      -0.00014434       0.00011376       0.00059933       0.02567415
Al       6.32719198      -3.71207831       4.97258039       0.00003572       0.00022212      -0.00018318       0.02572178
Ga       6.32511916      -3.72108805      -5.27151733      -0.00042697      -0.00049446       0.00010541      -0.00092944
Ga       6.34008705      -3.71584086      -0.13729974      -0.00003918       0.00011572       0.00008252      -0.00082364
Ga       4.75386590      -0.94155468       4.97574828      -0.00015669      -0.00014513       0.00055851      -0.00115726
Ga       4.75304952      -0.94844571      -5.26862269      -0.00028319       0.00040325      -0.00018421      -0.00120437
Ga       4.74488846      -0.96029054      -0.13394587      -0.00039067       0.00016574      -0.00030931      -0.00098534
Al      -3.20683993       1.81240576       4.96382451       0.00122496      -0.00026006       0.00266998       0.02502421
Al      -3.19016430       1.80051052      -5.27709166      -0.00182741      -0.00100068      -0.00045029       0.02480394
Ga      -3.19647677       1.80581033      -0.14210041      -0.00009741      -0.00022613      -0.00085234      -0.00123013
Al      -0.01517962      -3.71382875       4.99443696      -0.00010925      -0.00018447      -0.00002395       0.02603398
Ga      -0.00513198      -3.72207934      -5.26955188      -0.00021379      -0.00009525       0.00045608      -0.00111507
Al      -0.01232030      -3.71764765      -0.16436019      -0.00020489       0.00028146       0.00039535       0.02596772
Ga      -1.61420994      -0.94263319       4.96071429      -0.00008274       0.00037648      -0.00007809      -0.00124965
Al      -1.61045738      -0.94192600      -5.24819445      -0.00015208      -0.00030021       0.00021762       0.02547382
Ga      -1.60538458      -0.94855684      -0.14753941      -0.00033881       0.00006793      -0.00011903      -0.00102156
N        1.51966597       0.91190972       4.31483552       0.00047330      -0.00015035      -0.00024806       0.02374254
N        1.55771322       0.91996411      -5.91993148       0.00044756      -0.00019376      -0.00024664       0.02527046
N        1.56399221       0.93268707      -0.78450884       0.00022477       0.00015119       0.00015782       0.02509193
N        0.01681285       3.60052876       4.33933564       0.00011507       0.00041877      -0.00056492       0.02565350
N       -0.06481159       3.59492994      -5.91867727       0.00000536      -0.00150651      -0.00089360       0.02468923
N       -0.03172685       3.57682834      -0.74195341      -0.00007284      -0.00025017      -0.00027134       0.02294120
N        3.15605759      -1.87215661       4.32924505       0.00032090      -0.00019566      -0.00067578       0.02273364
N        3.15373327      -1.92594646      -5.86419157      -0.00003959      -0.00013431       0.00008141       0.02246049
N        3.16251024      -1.88679000      -0.81790390      -0.00001821      -0.00012573       0.00034643       0.02331668
N       -4.75168753       0.91120023       4.32205201       0.00022332      -0.00006341      -0.00111611       0.02412789
N       -4.78675386       0.92654742      -5.90803005       0.00117651       0.00038851       0.00025220       0.02470699
N       -4.83343865       0.90238468      -0.74065122       0.00027322       0.00045096       0.00002028       0.02293991
N       -6.37726102       3.68018897       4.40669326      -0.00006632       0.00012949      -0.00016520       0.02465295
N       -6.37977378       3.58055109      -5.88285757       0.00013163      -0.00011318      -0.00048997       0.02291337
N       -6.34047335       3.59590530      -0.71817423       0.00022852      -0.00012988      -0.00024118       0.02423148
N       -3.20334819      -1.91704679       4.33845687       0.00020372      -0.00026820      -0.00031454       0.02389139
N       -3.15272801      -1.85425983      -5.87435009       0.00032595       0.00018321      -0.00009446       0.02265562
N       -3.19608003      -1.87215046      -0.81356923       0.00015093      -0.00002537       0.00030275       0.02308085
N       -1.60657353       0.94523348       4.35568048      -0.00180452      -0.00021832      -0.00271716       0.02442558
N       -1.61336711       0.87600530      -5.84491221      -0.00072472      -0.00044362      -0.00011369       0.02542587
N       -1.57131956       0.90467490      -0.81387006      -0.00001772       0.00004205      -0.00013190       0.02365236
N       -3.25293553       3.61224853       4.34398571       0.00058343      -0.00047950      -0.00065339       0.02567682
N       -3.16392096       3.59541606      -5.93006135       0.00011329      -0.00014707       0.00077457       0.02517852
N       -3.23544131       3.64743984      -0.81248492       0.00007133      -0.00020750       0.00081671       0.02459085
N       -0.01922350      -1.92076324       4.38185455       0.00000227      -0.00041864      -0.00023844       0.02241213
N       -0.06394456      -1.85099133      -5.86353057       0.00002347      -0.00024643      -0.00008908       0.02287985
N       -0.02488536      -1.91719470      -0.79228841       0.00020479      -0.00043152       0.00006209       0.02392343
N       -0.02973679       1.79131780       1.78260657      -0.00017245      -0.00000051       0.00019291       0.02599007
N        0.01829742       1.81994552       6.90572320       0.00002729       0.00056653       0.00002532       0.02550655
N       -0.01687194       1.74184500      -3.36546736      -0.00059742      -0.00070484       0.00024351       0.02501826
N        3.15632778      -3.71121136       1.86571816      -0.00118977       0.00051468      -0.00065121       0.02507197
N        3.15767571      -3.75452467       6.95525952      -0.00003757      -0.00020121      -0.00023551       0.02363738
N        3.11674199      -3.69540130      -3.36612916      -0.00058461      -0.00013257       0.00019199       0.02561020
N        1.61394771      -0.93126199       1.82026189      -0.00015587       0.00042487      -0.00017606       0.02377024
N        1.57215115      -0.89638126       6.95502583      -0.00047948       0.00017806      -0.00038691       0.02213345
N        1.56687545      -0.95380076      -3.26347846      -0.00029865       0.00015157       0.00027646       0.02542190
N        3.15177757       1.74796626       1.79006296       0.00033300       0.00001602       0.00001311       0.02520448
N        3.15272555       1.74598600       6.95937583      -0.00007269      -0.00029477      -0.00027883       0.02463606
N        3.10708257       1.76257369      -3.37721591      -0.00001770      -0.00000940      -0.00014543       0.02371023
N        6.29080021      -3.68183328       1.83985307       0.00005027       0.00000673      -0.00039692       0.02404420
N        6.28649464      -3.72396049       6.89710244       0.00038522       0.00009227      -0.00076283       0.02337596
N        6.33264493      -3.66955030      -3.30165000       0.00007915       0.00013532       0.00009453       0.02302329
N        4.74595363      -0.95686481       1.85039554       0.00046310       0.00091149       0.00042090       0.02540609
N        4.74531705      -0.89502499       6.95444527      -0.00037250       0.00011376      -0.00043392       0.02218043
N        4.74663292      -1.00299921      -3.29620912      -0.00021230      -0.00023544       0.00018288       0.02419581
N       -3.19717420       1.80030324       1.84265360       0.00083862      -0.00015862      -0.00001122       0.02513870
N       -3.24671271       1.82395861       6.90331514      -0.00024973       0.00024238      -0.00095411       0.02553377
N       -3.16388331       1.81706667      -3.35262255       0.00043045       0.00041790       0.00014426       0.02455573
N        0.02672064      -3.73333906       1.74958139       0.00098581      -0.00058634       0.00005321       0.02408550
N        0.02528474      -3.72206143       6.91085273       0.00008211      -0.00018225      -0.00036202       0.02343309
N        0.02177570      -3.68806208      -3.29445308       0.00008301       0.00010114      -0.00005705       0.02422772
N       -1.65445127      -0.92529725       1.84110404      -0.00026466       0.00014479      -0.00011262       0.02331420
N       -1.61085316      -0.93779788       6.92363250      -0.00027342       0.00004841      -0.00019083       0.02114912
N       -1.60835051      -0.95739321      -3.32320868      -0.00011465       0.00008728      -0.00002277       0.02635989
108
Lattice="9.43293603 0.0 0.0 -4.730185753645 8.165190611245 0.0 -0.01119897656457 -0.001119098886517 15.10733813768" Properties=species:S:1:pos:R:3:dft_forces:R:3:mace_mp_descriptors:R:1 dft_energy=-573990.1015001 dft_stress="0.006286262845195 0.001392648951518 -0.0006123379097832 0.001387982869239 0.008213528906569 -0.0002786041891998 -0.0006082836007018 -0.0002749454078107 -1.154265745648e-05" config_type=generated system_name=AlGaN_super3_all mace_mp_descriptor=0.02419440537011194 mace_mp_Ga_descriptor=-0.0020618450050960842 mace_mp_N_descriptor=0.026161861886468303 mace_mp_Al_descriptor=0.023655701433688035 model_path=medium-0b3 arch=mace_mp pbc="T T T"
Al       1.54192514       0.86985221       2.37751978       0.00120150      -0.00374951      -0.00251930       0.02357501
Al       1.53804582       0.87017458       7.40695812       0.00093662      -0.00342693      -0.00033817       0.02347757
Al       1.54934034       0.87034721      -2.67661758       0.00208428      -0.00363617      -0.00181502       0.02361131
Al      -0.02594001       3.58678676       2.37805256       0.00030220       0.00004822      -0.00151441       0.02359277
Al      -0.02906838       3.58506016       7.40733545       0.00002883      -0.00051930       0.00002556       0.02358768
Al      -0.01973546       3.58868850      -2.67759147      -0.00000852      -0.00010972      -0.00056751       0.02364320
Al       3.11924115      -1.86964567       2.38907274       0.00818871       0.00450068      -0.00524572       0.02358988
Al       3.13262519      -1.86228763       7.40804791       0.00009509      -0.00031274       0.00021268       0.02368065
Al       3.13630902      -1.86639348      -2.68161124       0.00131736       0.00091453      -0.00187839       0.02393996
Al      -4.75145144       0.87303784       2.38919123       0.00123301       0.00078801      -0.00122271       0.02396886
Al      -4.75858242       0.87540279       7.40963549       0.00123177      -0.00346296      -0.00043722       0.02346614
Al      -4.74874907       0.87816526      -2.65231824       0.00102715      -0.00324643      -0.04363716       0.02427705
Al      -6.32316705       3.58922380       2.37621415       0.00015790       0.00014691      -0.00246026       0.02356267
Al      -6.33038065       3.58819929       7.40394668       0.00079407       0.00029824      -0.00050946       0.02384552
Al      -6.32029585       3.58885294      -2.66218494      -0.00021495      -0.00138908      -0.00221463       0.02382469
Al      -3.15727728      -1.85750534       2.37578687       0.00134379      -0.00003451      -0.00223227       0.02417923
Al      -3.16730640      -1.85894086       7.41758468      -0.00039212      -0.00046021      -0.00037903       0.02388345
Al      -3.14863026      -1.86119214      -2.67993913      -0.00100515       0.00097210      -0.00177299       0.02387770
Al      -1.61966532       0.88764836       2.37153166       0.00440506      -0.00437283      -0.00307928       0.02372178
Al      -1.62451213       0.88313019       7.41791602       0.00499522      -0.00189462      -0.00126075       0.02364008
Al      -1.61570996       0.88037187      -2.67458429       0.00398371      -0.00278469      -0.00242889       0.02348942
Al      -3.19068764       3.59317613       2.37804490       0.00337912       0.00070713      -0.00282634       0.02346176
Al      -3.18780283       3.59255061       7.40569257       0.00286548       0.00103304      -0.00093960       0.02378326
Al      -3.17844248       3.59434582      -2.66235218       0.00396902      -0.00056003      -0.00287862       0.02376256
Al      -0.02242356      -1.85529026       2.37534069       0.00257677       0.00076574      -0.00315122       0.02386734
Al      -0.02680790      -1.84941702       7.41340334       0.00425164      -0.00060555      -0.00142673       0.02399734
Al      -0.02047285      -1.84806832      -2.66480670       0.00375420       0.00139745      -0.00176539       0.02381086
Al      -0.02507652       1.77911105       4.89088241      -0.00314133      -0.00129636      -0.00028242       0.02362832
Al      -0.01642221       1.77396182      -5.18537935      -0.00353024      -0.00074687      -0.00064858       0.02349143
Al      -0.01922647       1.77543463      -0.18028851      -0.00342888      -0.00091349       0.00900921       0.02314832
Al       3.13478373      -3.67608181       4.89892513      -0.00320541      -0.00140669      -0.00125588       0.02337038
Al       3.15010039      -3.67668755      -5.18850205      -0.00367570       0.00024620      -0.00044131       0.02356253
Al       3.13924050      -3.67791766      -0.15149467      -0.00249889      -0.00023175      -0.00015122       0.02355376
Al       1.57260227      -0.96150773       4.89900815      -0.00543167       0.00433419      -0.00107275       0.02346483
Al       1.57894014      -0.95290525      -5.18723819      -0.00391661       0.00253533      -0.00068689       0.02353979
Al       1.56775051      -0.96129018      -0.15198709      -0.00426701       0.00382893      -0.00129206       0.02345964
Al       3.10814062       1.77787058       4.89508271      -0.00064164       0.00004730      -0.00026784       0.02342807
Al       3.11401088       1.77369787      -5.18639490       0.00045907      -0.00012110       0.00171158       0.02371949
Al       3.11958393       1.77916213      -0.16431915      -0.00169555       0.00040048      -0.00109758       0.02336670
Al       6.26523187      -3.67445624       4.89542522       0.00063041      -0.00002496      -0.00018771       0.02360751
Al       6.27385465      -3.67264382      -5.18696356       0.00017084       0.00085524       0.00013760       0.02362641
Al       6.27908111      -3.67350512      -0.15108966      -0.00105737       0.00038589      -0.00044211       0.02360728
Al       4.69516423      -0.95603115       4.89605965      -0.00035296       0.00421453      -0.00025874       0.02368581
Al       4.71102545      -0.95260175      -5.18260136      -0.00128694       0.00353633       0.00055368       0.02340637
Ga       4.70733632      -0.93479832      -0.18053814      -0.00007213       0.00242743       0.00272452      -0.00216092
Al      -3.19125202       1.78924498       4.89571373       0.00000490      -0.00068320       0.00064685       0.02372391
Al      -3.17646431       1.77952127      -5.18516254      -0.00086854       0.00002315       0.00181607       0.02377746
Al      -3.18507565       1.78872307      -0.16398346       0.00004609      -0.00073199      -0.00241544       0.02337341
Al      -0.02320211      -3.67038292       4.89560274      -0.00082449       0.00005790      -0.00006198       0.02371435
Ga      -0.01725977      -3.66502529      -5.18160802      -0.00006236       0.00005119       0.00018262      -0.00200496
Al      -0.02012213      -3.66466208      -0.15610083      -0.00023551       0.00047626       0.00070436       0.02359667
Ga      -1.59437250      -0.95104604       4.89939715      -0.00104334       0.00527351      -0.00127130      -0.00201966
Al      -1.58556902      -0.94268113      -5.18698686      -0.00183779       0.00312351      -0.00049289       0.02382862
Al      -1.58233039      -0.95093708      -0.14833157      -0.00164192       0.00458582      -0.00102067       0.02364197
N        1.54067335       0.86947339       4.29732545       0.00110925      -0.00401927       0.00008486       0.02614617
N        1.54846941       0.87079857      -5.78368620       0.00048456      -0.00327371      -0.00000434       0.02660089
N        1.54810331       0.87015181      -0.76078991       0.00134451      -0.00436286       0.00327804       0.02621200
N       -0.02780366       3.58854273       4.29739285      -0.00072827       0.00017513      -0.00077188       0.02666286
N       -0.01827220       3.58659357      -5.78430165      -0.00012594      -0.00091283      -0.00023925       0.02671208
N       -0.02117828       3.59027191      -0.76047311      -0.00032757      -0.00008779       0.00188562       0.02621472
N        3.12884356      -1.86472612       4.30226548       0.00099180      -0.00000839      -0.00118895       0.02673404
N        3.14293001      -1.86094251      -5.78374264      -0.00022772      -0.00040381       0.00023820       0.02621844
N        3.11480426      -1.87558590      -0.77181382      -0.00735765      -0.00358346       0.00015582       0.02516692
N       -4.75697650       0.87851416       4.30259366       0.00115800      -0.00453350       0.00048305       0.02630256
N       -4.74828796       0.87573114      -5.78138006       0.00129146      -0.00337796      -0.00026668       0.02620363
N       -4.75394021       0.91817617      -0.88131148       0.00218634       0.00355834       0.05734351       0.02510977
N       -6.32552198       3.59058191       4.29473882       0.00010637      -0.00004059       0.00009822       0.02630609
N       -6.34090066       3.57643546      -5.79499326      -0.00655848      -0.00404529      -0.00296035       0.02525932
N       -6.32135773       3.59098333      -0.75346005       0.00108265       0.00001414       0.00320282       0.02688104
N       -3.18851334      -1.87317315       4.28667813      -0.00702729      -0.00376448      -0.00284026       0.02537115
N       -3.15547350      -1.85778424      -5.77899196       0.00046463      -0.00012051       0.00084539       0.02637269
N       -3.13158619      -1.87092963      -0.77022430       0.00750869      -0.00349250      -0.00063124       0.02522411
N       -1.62476320       0.91364139       4.28588251       0.00435955       0.00351406      -0.00222292       0.02521409
N       -1.61340286       0.88298131      -5.77762897       0.00522618      -0.00256391       0.00096323       0.02673137
N       -1.61711736       0.88088879      -0.75821749       0.00389042      -0.00348036       0.00354075       0.02622424
N       -3.19070636       3.59522390       4.29668163       0.00416611       0.00095274      -0.00018134       0.02673817
N       -3.15472542       3.58198423      -5.79363972       0.01012347      -0.00331501      -0.00246835       0.02521746
N       -3.17905921       3.59868638      -0.75408519       0.00246790       0.00078139       0.00367285       0.02684096
N       -0.00205743      -1.86787785       4.28659178       0.01036150      -0.00309834      -0.00222563       0.02518957
N       -0.01653013      -1.82193225      -5.79022574       0.00341815       0.00831681      -0.00179894       0.02537232
N       -0.02234098      -1.84869152      -0.75285970       0.00361242      -0.00000861       0.00283216       0.02679460
N       -0.02196876       1.77538405       1.78947618      -0.00307707      -0.00065088      -0.00880276       0.02634307
N       -0.02766007       1.77285213       6.81096400      -0.00375432      -0.00112252       0.00017125       0.02634731
N       -0.01688871       1.77443604      -3.26944069      -0.00381031      -0.00106168       0.00164050       0.02641491
N        3.13518543      -3.67450703       1.77449864      -0.00277619      -0.00058784       0.00109864       0.02635794
N        3.13528374      -3.67667482       6.81125361      -0.00353548       0.00004664       0.00026255       0.02652828
N        3.14312543      -3.67754438      -3.27505233      -0.00385350      -0.00077033       0.00146970       0.02641528
N        1.56935321      -0.96217824       1.77119394      -0.00358201       0.00387992       0.00146253       0.02632104
N        1.56752707      -0.95933637       6.81257157      -0.00450078       0.00277633       0.00053252       0.02633213
N        1.57466845      -0.95931278      -3.27392116      -0.00524770       0.00279813       0.00198218       0.02638876
N        3.11623861       1.77373041       1.76699958       0.00098283      -0.00072971      -0.00127832       0.02633906
N        3.10670826       1.77732714       6.80917238       0.00009190      -0.00049653      -0.00029261       0.02643617
N        3.11648660       1.77960782      -3.26920208      -0.00110060       0.00054990      -0.00195798       0.02646990
N        6.27204587      -3.66848396       1.76767284      -0.00025485      -0.00057572       0.00167648       0.02639501
N        6.26717871      -3.67014963       6.81023391      -0.00007537       0.00081424      -0.00031935       0.02644850
N        6.27988423      -3.67246046      -3.27414276      -0.00007200      -0.00002490       0.00092049       0.02647413
N        4.73165755      -0.92690779       1.79229045      -0.01266950      -0.00446407       0.00808117       0.02537324
N        4.70174487      -0.95497753       6.81333762      -0.00116848       0.00362811      -0.00006819       0.02637343
N        4.71140477      -0.95472253      -3.26506136      -0.00125402       0.00245040      -0.00035557       0.02596541
N       -3.19071055       1.78281797       1.76096425      -0.00081256      -0.00001201      -0.00051189       0.02637466
N       -3.18859858       1.78179781       6.81132850      -0.00014563      -0.00049844      -0.00059221       0.02639505
N       -3.17928026       1.78430837      -3.26813299       0.00093842       0.00070341      -0.00173063       0.02642306
N       -0.02461053      -3.66756346       1.77240115       0.00008071       0.00001683      -0.00072059       0.02658985
N       -0.02782215      -3.66623718       6.81325307      -0.00000874       0.00063973      -0.00049136       0.02600412
N       -0.01866637      -3.66567055      -3.23282612       0.00008078       0.00060141       0.00996796       0.02546004
N       -1.58767683      -0.95129015       1.77402487      -0.00058353       0.00459205       0.00132355       0.02593634
N       -1.59622421      -0.94859619       6.84798328      -0.00134126       0.00362628       0.00858566       0.02537488
N       -1.58306578      -0.94946214      -3.27359301      -0.00064851       0.00379821       0.00124564       0.02643774
108
Lattice="9.48210288 0.0 0.0 -4.744920888206 8.217151971301 0.0 -0.0007893839761563 0.001037357353138 15.32645547457" Properties=species:S:1:pos:R:3:dft_forces:R:3:mace_mp_descriptors:R:1 dft_energy=-1352171.613636 dft_stress="-0.01069718484519 0.004036771618025 -0.0001784419108595 0.004033862443488 -0.009464680993651 0.0005602691011728 -0.0001896082649425 0.0005488152407226 -0.004392098905264" config_type=generated system_name=AlGaN_super3_all mace_mp_descriptor=0.01991307334780145 mace_mp_Ga_descriptor=-0.001396278632360117 mace_mp_N_descriptor=0.024699429412867274 mace_mp_Al_descriptor=0.02484612664455665 model_path=medium-0b3 arch=mace_mp pbc="T T T"
Al       1.52559896       0.93828092       2.25305605       0.03267837      -0.02866235       0.03353811       0.02344432
Al       1.52245666       0.90780060       7.54736423       0.01797744      -0.02037488      -0.00176711       0.02408423
Al       1.54190749       0.85885159      -2.76431726       0.00560155       0.00027288       0.00865950       0.02459627
Al      -0.00168468       3.60138604       2.40772256       0.01347399       0.00833603       0.02151467       0.02538930
Al      -0.00195641       3.55582396       7.51754356      -0.00746597       0.01761943      -0.00015457       0.02421095
Al      -0.01410925       3.60063226      -2.74886621      -0.00348744       0.00105530       0.01345980       0.02539322
Al       3.15484202      -1.83972874       2.43190708       0.01138586      -0.00763236      -0.00896528       0.02574300
Al       3.16683373      -1.85072839       7.51953134      -0.00616152      -0.00451816       0.00844162       0.02602182
Ga       3.14448286      -1.86221079      -2.74182951      -0.00071443      -0.00400799       0.00886659      -0.00125417
Al      -4.76803183       0.86733389       2.41891390      -0.02705041      -0.00969529       0.00892504       0.02470525
Al      -4.80779249       0.88046252       7.50443148       0.00036999       0.00198700      -0.00049692       0.02499908
Al      -4.79663573       0.86264713      -2.72467617       0.00399349       0.00390534       0.01140992       0.02562926
Al      -6.34587727       3.64496443       2.40296969      -0.00300779      -0.01067002      -0.00022728       0.02403362