1
dft_energy=-6.589117430582E+03 Lattice="1.000000000000e+01 0.000000000000e+00 0.000000000000e+00  0.000000000000e+00 1.000000000000e+00 0.000000000000e+00 0.000000000000e-00  0.000000000000e-00 1.000000000000e+00" dft_stress="0.000000000000e-00  0.000000000000e-00  0.000000000000e-00  0.000000000000e-00  0.000000000000e-00  0.000000000000e-00  0.000000000000e-00  0.000000000000e-00 0.000000000000e-00" Properties=species:S:1:pos:R:3:dft_forces:R:3 config_type=IsolatedAtom system_name=Al
Al 0.000000000000e+00 0.000000000000e-00 0.000000000000e+00   0.000000000000e-00 0.000000000000e-00 0.000000000000e-00
1
dft_energy=-5.236806134899E+04 Lattice="1.000000000000e+01 0.000000000000e+00 0.000000000000e+00  0.000000000000e+00 1.000000000000e+00 0.000000000000e+00 0.000000000000e-00  0.000000000000e-00 1.000000000000e+00" dft_stress="0.000000000000e-00  0.000000000000e-00  0.000000000000e-00  0.000000000000e-00  0.000000000000e-00  0.000000000000e-00  0.000000000000e-00  0.000000000000e-00 0.000000000000e-00" Properties=species:S:1:pos:R:3:dft_forces:R:3 config_type=IsolatedAtom system_name=Ga
Ga 0.000000000000e+00 0.000000000000e-00 0.000000000000e+00   0.000000000000e-00 0.000000000000e-00 0.000000000000e-00
1
dft_energy=-1.483705316803E+03 Lattice="1.000000000000e+01 0.000000000000e+00 0.000000000000e+00  0.000000000000e+00 1.000000000000e+00 0.000000000000e+00 0.000000000000e-00  0.000000000000e-00 1.000000000000e+00" dft_stress="0.000000000000e-00  0.000000000000e-00  0.000000000000e-00  0.000000000000e-00  0.000000000000e-00  0.000000000000e-00  0.000000000000e-00  0.000000000000e-00 0.000000000000e-00" Properties=species:S:1:pos:R:3:dft_forces:R:3 system_name=N config_type=IsolatedAtom
N 0.000000000000e+00 0.000000000000e-00 0.000000000000e+00   0.000000000000e-00 0.000000000000e-00 0.000000000000e-00
