108
Energy=-1.581051e+06 Lattice="9.526619e+00 0.000000e+00 0.000000e+00 -4.784486e+00 8.247561e+00 0.000000e+00 5.000062e-03 4.403663e-03 1.534042e+01" Stress="-6.614225e-03 -1.638338e-03 5.681553e-04 -1.648495e-03 -5.001518e-03 3.378122e-04 5.732233e-04 3.383084e-04 -9.192033e-03" Properties=species:S:1:pos:R:3:forces:R:3 Config_type=AlGaN_super3_25_2_7.xyz
Al 1.628253e+00 9.065893e-01 2.374396e+00 -3.320087e-02 -1.780978e-02 1.174662e-02
Al 1.552489e+00 8.669062e-01 7.512607e+00 -4.010856e-04 -5.529710e-04 2.810295e-03
Al 1.534260e+00 8.841837e-01 -2.676339e+00 1.557755e-03 -2.556131e-03 -7.208892e-03
Al -2.702147e-02 3.604935e+00 2.380446e+00 -9.837037e-03 4.661818e-03 1.238371e-05
Al -3.146559e-02 3.606523e+00 7.513589e+00 -7.631546e-04 -4.330299e-04 1.050127e-03
Al -7.346797e-02 3.615264e+00 -2.684721e+00 9.759214e-03 -2.137414e-03 2.687017e-03
Al 3.134970e+00 -1.871726e+00 2.371195e+00 1.638712e-03 -2.408114e-03 -1.147867e-03
Al 3.156762e+00 -1.875454e+00 7.517886e+00 -6.448396e-04 -1.772746e-03 2.162057e-03
Ga 3.146762e+00 -1.870709e+00 -2.687907e+00 -4.879798e-04 1.340310e-04 1.568161e-03
Ga -4.800746e+00 8.730945e-01 2.392702e+00 5.735383e-03 -3.317485e-04 1.855796e-03
Ga -4.787709e+00 8.846999e-01 7.528840e+00 2.583281e-03 -1.234864e-04 3.091988e-04
Al -4.789036e+00 8.733184e-01 -2.684418e+00 1.446824e-03 1.760571e-03 -4.589033e-04
Ga -6.404106e+00 3.609760e+00 2.383095e+00 3.077272e-03 5.874934e-03 9.047104e-04
Ga -6.384158e+00 3.618408e+00 7.544488e+00 1.130765e-03 1.225216e-03 -4.936831e-04
Ga -6.395620e+00 3.620540e+00 -2.668390e+00 3.399904e-04 4.453539e-04 -3.439560e-03
Ga -3.197464e+00 -1.862380e+00 2.369433e+00 2.720062e-04 -1.296754e-03 3.763507e-03
Ga -3.190865e+00 -1.875056e+00 7.518034e+00 2.315030e-03 4.551631e-04 1.062534e-03
Al -3.189538e+00 -1.863275e+00 -2.667278e+00 4.697023e-04 -1.456795e-03 8.945195e-04
Al -1.606140e+00 8.861438e-01 2.405694e+00 1.417667e-03 -5.355574e-04 2.802617e-03
Ga -1.605794e+00 9.119799e-01 7.507106e+00 1.624630e-03 -2.174291e-03 2.219429e-03
Al -1.623698e+00 8.819752e-01 -2.704744e+00 1.495411e-03 7.681566e-04 -1.099933e-03
Al -3.185596e+00 3.626068e+00 2.407218e+00 9.280670e-04 1.263907e-03 -2.416159e-03
Al -3.190521e+00 3.626449e+00 7.517435e+00 5.303797e-04 -1.111108e-03 1.758220e-03
Al -3.200231e+00 3.622736e+00 -2.690332e+00 -2.236456e-03 -2.635124e-03 -1.592503e-03
Ga -4.440542e-03 -1.838252e+00 2.394202e+00 2.710593e-04 -1.301160e-03 2.054016e-03
Ga 1.478325e-02 -1.853480e+00 7.507635e+00 -2.229064e-04 -8.104796e-04 1.169990e-03
Al -1.270804e-02 -1.846456e+00 -2.688745e+00 2.532454e-04 -1.839736e-03 -1.260291e-04
Al -2.156682e-02 1.772839e+00 4.924943e+00 3.228826e-04 8.685731e-04 8.873247e-04
Al -3.116532e-02 1.776869e+00 -5.253642e+00 1.848295e-03 2.065860e-03 4.419291e-03
Ga -2.619325e-02 1.780731e+00 -1.191826e-01 -1.991553e-03 2.018619e-03 -1.219296e-02
Ga 3.169505e+00 -3.718827e+00 4.945160e+00 3.364124e-04 2.658648e-03 1.719996e-03
Ga 3.161705e+00 -3.731821e+00 -5.269726e+00 7.072568e-04 2.882894e-03 1.148558e-03
Al 3.160685e+00 -3.701138e+00 -1.414301e-01 4.425391e-04 7.925085e-04 2.128891e-03
Al 1.582645e+00 -9.430405e-01 4.935544e+00 -2.336105e-04 1.414235e-03 2.608914e-03
Al 1.567857e+00 -9.513866e-01 -5.259793e+00 1.969619e-03 2.405678e-03 4.403001e-03
Al 1.577044e+00 -9.490867e-01 -1.529871e-01 -1.368817e-03 -4.769487e-04 6.981458e-04
Ga 3.137854e+00 1.779917e+00 4.972272e+00 -1.359868e-03 -3.983050e-04 2.178046e-03
Ga 3.132212e+00 1.767426e+00 -5.236263e+00 -1.431266e-03 -1.587986e-04 9.515669e-04
Al 3.125897e+00 1.768518e+00 -1.596988e-01 2.258210e-03 1.890876e-03 -3.970148e-03
Ga 6.335782e+00 -3.711520e+00 4.959976e+00 -1.942150e-03 1.228013e-03 9.593498e-04
Ga 6.322300e+00 -3.716143e+00 -5.231386e+00 -1.103168e-03 5.267100e-05 2.543865e-03
Al 6.312440e+00 -3.700876e+00 -1.584945e-01 -4.001254e-04 1.096071e-03 -2.956337e-03
Ga 4.748406e+00 -9.560545e-01 4.956247e+00 -2.524487e-03 -1.660242e-03 3.426698e-04
Ga 4.749570e+00 -9.524972e-01 -5.238517e+00 -2.694031e-03 -1.086300e-03 1.513021e-03
Al 4.734527e+00 -9.643529e-01 -1.522697e-01 4.497590e-04 -5.545908e-04 -3.304184e-03
Al -3.185701e+00 1.797177e+00 4.940078e+00 8.018102e-04 -6.892991e-05 3.812678e-04
Al -3.198262e+00 1.799881e+00 -5.237783e+00 -9.479056e-04 4.115460e-04 3.415705e-03
Ga -3.212204e+00 1.788248e+00 -1.650208e-01 3.205482e-04 1.083390e-03 3.853758e-03
Ga 5.316770e-03 -3.696932e+00 4.958413e+00 2.287591e-06 1.237975e-03 -1.073558e-03
Ga 7.935081e-03 -3.703125e+00 -5.235303e+00 -9.341923e-04 3.023756e-04 9.525029e-04
Ga -1.135162e-02 -3.687791e+00 -1.636194e-01 -2.446002e-04 -4.961924e-04 4.815773e-03
Al -1.587923e+00 -9.302331e-01 4.947611e+00 -1.712500e-03 2.893690e-04 3.406306e-04
Ga -1.589076e+00 -9.380754e-01 -5.227566e+00 -1.744029e-03 -2.715032e-04 9.430561e-04
Al -1.607570e+00 -9.456121e-01 -1.717111e-01 -2.237223e-03 -1.759235e-03 -9.600813e-04
N 1.538409e+00 8.573228e-01 4.307380e+00 -5.162651e-04 -5.667497e-04 -3.172448e-03
N 1.511930e+00 8.451967e-01 -5.888286e+00 -1.215937e-03 1.930183e-04 -3.776522e-03
N 1.581872e+00 8.519274e-01 -7.839403e-01 1.541398e-03 -3.841625e-04 3.020036e-03
N -2.579648e-02 3.578368e+00 4.299209e+00 -2.125517e-04 -2.198665e-03 -2.797688e-03
N -3.034083e-02 3.567668e+00 -5.902607e+00 2.470554e-04 -2.661754e-03 -3.387543e-03
N -5.233361e-02 3.657906e+00 -7.603305e-01 5.092967e-04 7.279114e-04 -2.533641e-03
N 3.124300e+00 -1.855246e+00 4.285579e+00 -6.651991e-04 1.389483e-04 1.699365e-03
N 3.123326e+00 -1.856098e+00 -5.891505e+00 -1.480105e-03 2.821980e-04 -1.671976e-03
N 3.149002e+00 -1.877262e+00 -7.083151e-01 -1.474566e-04 2.237676e-04 3.214979e-04
N -4.758625e+00 8.991720e-01 4.363691e+00 2.974719e-03 1.760393e-03 -1.574318e-03
N -4.752393e+00 8.995294e-01 -5.842011e+00 2.771857e-03 1.475815e-03 -7.320547e-04
N -4.836342e+00 8.536149e-01 -7.674455e-01 -9.977920e-04 -6.308721e-04 3.045656e-04
N -6.383197e+00 3.622419e+00 4.347577e+00 1.528958e-03 -3.450847e-04 -2.102839e-03
N -6.384664e+00 3.621692e+00 -5.834997e+00 9.742256e-04 1.602742e-05 -4.426582e-04
N -6.430430e+00 3.601419e+00 -7.091879e-01 -1.126627e-03 -1.428856e-03 3.316766e-03
N -3.149852e+00 -1.849241e+00 4.352723e+00 3.033169e-03 6.549558e-04 -2.026071e-03
N -3.183053e+00 -1.872181e+00 -5.858975e+00 1.242608e-03 -6.075852e-05 -1.104433e-03
N -3.197263e+00 -1.870650e+00 -7.452942e-01 6.358075e-04 3.516168e-04 1.822255e-04
N -1.613151e+00 8.816113e-01 4.339330e+00 6.876989e-04 -4.301298e-04 -1.807736e-03
N -1.621531e+00 9.285014e-01 -5.836253e+00 1.254480e-04 8.438804e-05 -1.286850e-03
N -1.625276e+00 8.449742e-01 -7.987187e-01 2.330038e-03 -1.551514e-03 -1.986471e-03
N -3.201616e+00 3.590175e+00 4.305596e+00 -6.373159e-05 -3.002518e-03 8.049946e-04
N -3.212751e+00 3.577913e+00 -5.900778e+00 -2.784935e-04 -3.072692e-03 -3.492014e-03
N -3.175709e+00 3.650629e+00 -7.905546e-01 1.857007e-03 -2.860597e-04 -4.636611e-04
N -7.727476e-03 -1.812794e+00 4.372755e+00 -4.602227e-04 -7.974941e-04 1.326404e-03
N 2.269476e-02 -1.842827e+00 -5.854649e+00 -1.562218e-04 -1.886588e-03 -1.567384e-03
N -1.626321e-02 -1.816031e+00 -7.726515e-01 8.701108e-04 1.168173e-03 -1.392192e-04
N -2.185859e-02 1.773886e+00 1.813522e+00 4.505103e-03 3.414365e-03 1.347143e-02
N 2.221954e-02 1.807752e+00 6.856734e+00 9.619210e-04 1.704972e-03 2.740755e-05
N -3.558002e-02 1.792296e+00 -3.307488e+00 1.572176e-04 1.641416e-03 -1.758001e-03
N 3.152642e+00 -3.694966e+00 1.784572e+00 4.421535e-03 -5.839574e-03 1.099674e-03
N 3.173476e+00 -3.712943e+00 6.945003e+00 5.734961e-04 2.263195e-03 1.088941e-03
N 3.160067e+00 -3.754443e+00 -3.287148e+00 -2.705222e-03 2.814987e-03 -2.481712e-03
N 1.599801e+00 -9.120138e-01 1.761005e+00 5.005530e-03 8.837293e-04 -1.191823e-03
N 1.630057e+00 -9.324011e-01 6.872006e+00 7.331863e-04 1.576391e-03 -3.286965e-03
N 1.532688e+00 -9.228241e-01 -3.327574e+00 -6.610468e-04 -4.135540e-04 -2.139113e-03
N 3.099125e+00 1.759247e+00 1.752536e+00 1.597746e-02 9.161669e-03 -8.789599e-03
N 3.108809e+00 1.766598e+00 6.939049e+00 -1.179329e-03 -9.647862e-05 -5.388196e-04
N 3.141471e+00 1.740207e+00 -3.263817e+00 -1.598712e-03 -4.856505e-04 9.462572e-04
N 6.289787e+00 -3.723398e+00 1.746565e+00 7.281331e-04 -1.813533e-03 3.225874e-04
N 6.305464e+00 -3.731540e+00 6.927524e+00 -1.587246e-03 -6.403649e-04 -1.077038e-03
N 6.286864e+00 -3.683652e+00 -3.255204e+00 -3.080644e-03 2.591741e-04 8.998760e-04
N 4.700303e+00 -9.803100e-01 1.752748e+00 -1.327381e-03 1.755559e-03 -6.792979e-04
N 4.714737e+00 -9.789297e-01 6.927307e+00 -2.814545e-03 -1.817693e-04 -1.342724e-03
N 4.783361e+00 -9.373977e-01 -3.261559e+00 4.132737e-04 -9.129333e-05 2.781748e-04
N -3.162956e+00 1.814526e+00 1.825025e+00 -4.458281e-04 -1.898452e-04 -2.708690e-03
N -3.197780e+00 1.841398e+00 6.859563e+00 -1.469580e-03 1.729024e-03 -2.691507e-03
N -3.209542e+00 1.796520e+00 -3.302264e+00 -1.235713e-03 2.879039e-04 -3.642479e-04
N 2.656154e-02 -3.725495e+00 1.829184e+00 6.493037e-05 1.208673e-03 -5.544817e-03
N 3.426194e-02 -3.724702e+00 6.928215e+00 9.914962e-06 -6.404272e-04 2.756224e-04
N 2.491457e-02 -3.680809e+00 -3.259587e+00 7.390918e-04 2.154439e-03 2.191499e-03
N -1.602718e+00 -9.020836e-01 1.743423e+00 -1.415024e-03 1.427445e-03 -9.698122e-04
N -1.591918e+00 -9.427285e-01 6.858737e+00 -1.913065e-03 2.017145e-04 -1.237808e-03
N -1.603066e+00 -9.538199e-01 -3.250760e+00 -2.508411e-03 -9.364702e-04 1.694447e-03
