108
Energy=-1352173.799911 Lattice="9.505250 0.000000 0.000000 -4.754815 8.230798 0.000000 0.002229 -0.000466 15.339044" Stress="0.000002 -0.000001 0.000000 -0.000001 0.000001 0.000000 0.000000 0.000000 0.000000" Properties=species:S:1:pos:R:3:forces:R:3
Al 1.581783 0.880319 2.408674 0.000093 0.000008 0.000008
Al 1.577344 0.871878 7.530693 -0.000101 0.000120 -0.000084
Al 1.556408 0.869463 -2.711479 0.000230 -0.000106 0.000167
Al -0.027138 3.624989 2.415615 -0.000015 -0.000013 0.000046
Al -0.013295 3.633794 7.541365 -0.000016 -0.000042 -0.000008
Al -0.036304 3.613337 -2.725296 -0.000227 0.000159 -0.000094
Al 3.157411 -1.866822 2.383685 -0.000044 0.000164 -0.000206
Al 3.145879 -1.867984 7.565877 0.000108 -0.000060 -0.000012
Ga 3.142383 -1.871326 -2.728093 0.000018 -0.000062 0.000177
Al -4.794102 0.871491 2.385700 -0.000052 0.000035 0.000102
Al -4.788416 0.874638 7.531257 -0.000077 -0.000147 0.000034
Al -4.775595 0.872687 -2.692469 -0.000081 0.000056 -0.000058
Ga -6.360038 3.597589 2.423932 0.000194 0.000035 0.000027
Al -6.359168 3.621332 7.516522 -0.000059 -0.000018 -0.000036
Ga -6.352659 3.613674 -2.716272 -0.000026 0.000055 0.000081
Ga -3.201103 -1.861422 2.413337 0.000030 0.000063 0.000084
Al -3.188781 -1.879542 7.538753 -0.000073 -0.000103 0.000015
Ga -3.190188 -1.857085 -2.721993 -0.000073 -0.000084 0.000101
Ga -1.610402 0.875810 2.399498 0.000031 -0.000116 0.000005
Ga -1.607013 0.868434 7.539303 0.000053 0.000028 0.000090
Al -1.605940 0.873007 -2.706327 -0.000177 0.000065 -0.000061
Ga -3.187022 3.623953 2.386655 0.000022 -0.000131 -0.000031
Al -3.200799 3.633960 7.543218 0.000131 0.000005 -0.000057
Al -3.186364 3.621211 -2.705658 0.000040 0.000036 -0.000057
Ga -0.021266 -1.866921 2.418792 0.000066 -0.000139 0.000176
Al -0.020203 -1.878730 7.540919 -0.000061 0.000009 0.000004
Al -0.020457 -1.864283 -2.731651 0.000072 -0.000057 -0.000059
Ga -0.003554 1.796738 4.975376 -0.000133 0.000144 0.000099
Ga -0.015439 1.793468 -5.244908 -0.000026 0.000025 -0.000050
Ga -0.027132 1.794287 -0.163505 0.000068 0.000052 0.000003
Ga 3.151532 -3.691128 4.991815 -0.000037 -0.000036 0.000207
Al 3.143868 -3.690042 -5.272845 0.000047 0.000041 0.000163
Al 3.144628 -3.701598 -0.161779 0.000060 0.000076 0.000098
Ga 1.563650 -0.955156 4.981984 -0.000160 0.000188 0.000112
Al 1.553815 -0.967375 -5.269248 0.000080 0.000100 -0.000033
Ga 1.560424 -0.959995 -0.156269 -0.000001 0.000027 0.000139
Al 3.149023 1.798420 4.985909 0.000051 -0.000131 -0.000003
Ga 3.146657 1.785314 -5.268303 0.000006 0.000013 0.000081
Al 3.161517 1.779040 -0.159911 -0.000005 -0.000029 0.000149
Al 6.327390 -3.699229 4.993094 -0.000051 0.000126 0.000047
Al 6.314139 -3.685512 -5.283062 -0.000054 0.000058 0.000111
Ga 6.311406 -3.694526 -0.151514 0.000026 0.000007 0.000059
Ga 4.732811 -0.950621 4.984651 0.000106 0.000075 0.000098
Al 4.731821 -0.962393 -5.283482 0.000007 0.000056 0.000025
Al 4.731250 -0.938466 -0.146580 -0.000024 -0.000051 0.000059
Ga -3.213234 1.793190 4.982016 0.000118 -0.000012 -0.000052
Ga -3.203371 1.795969 -5.239415 -0.000046 -0.000036 0.000164
Al -3.205427 1.787962 -0.185433 0.000045 -0.000045 -0.000150
Al -0.037768 -3.696108 5.008015 0.000040 -0.000029 0.000125
Al -0.019177 -3.681508 -5.274391 0.000064 0.000013 0.000051
Al -0.014270 -3.697361 -0.180703 0.000002 -0.000015 0.000097
Al -1.606952 -0.974991 5.003758 -0.000072 -0.000021 0.000156
Al -1.603137 -0.976976 -5.260237 -0.000045 0.000057 -0.000017
Al -1.608408 -0.953475 -0.181598 0.000025 -0.000022 0.000041
N 1.611826 0.898816 4.325404 0.000044 -0.000016 -0.000043
N 1.560526 0.826931 -5.905234 -0.000008 0.000064 0.000106
N 1.603005 0.895052 -0.803706 -0.000027 0.000058 -0.000089
N 0.016417 3.650431 4.330658 -0.000017 -0.000049 -0.000084
N -0.023291 3.665450 -5.886766 -0.000052 -0.000005 0.000024
N -0.065305 3.646510 -0.818473 0.000040 -0.000017 0.000091
N 3.150986 -1.870701 4.295596 -0.000027 0.000037 -0.000014
N 3.142460 -1.868732 -5.854462 -0.000015 -0.000014 -0.000049
N 3.190519 -1.892272 -0.744732 -0.000144 0.000051 -0.000176
N -4.821433 0.898495 4.309337 -0.000009 -0.000032 -0.000069
N -4.774909 0.831985 -5.910428 -0.000012 0.000028 -0.000033
N -4.779820 0.868445 -0.773863 0.000018 0.000061 -0.000048
N -6.356415 3.617398 4.423089 -0.000005 0.000089 -0.000149
N -6.358820 3.665898 -5.896567 0.000064 -0.000113 0.000043
N -6.321327 3.593361 -0.740546 -0.000017 0.000053 -0.000135
N -3.149713 -1.890523 4.397318 0.000036 -0.000060 -0.000061
N -3.186849 -1.868841 -5.875380 0.000018 0.000033 0.000001
N -3.197651 -1.820492 -0.744687 0.000035 -0.000006 -0.000116
N -1.610520 0.824457 4.385675 0.000102 -0.000117 -0.000124
N -1.610230 0.827573 -5.835853 -0.000029 -0.000035 0.000007
N -1.647080 0.851968 -0.788428 -0.000051 -0.000014 0.000062
N -3.235849 3.651516 4.367862 -0.000027 -0.000042 -0.000122
N -3.196200 3.665742 -5.884152 -0.000088 -0.000086 -0.000028
N -3.188122 3.624889 -0.775583 -0.000005 0.000013 0.000023
N -0.064414 -1.894968 4.400266 0.000044 -0.000149 -0.000131
N -0.025558 -1.869644 -5.877155 0.000040 -0.000000 -0.000015
N -0.062098 -1.891099 -0.810580 0.000065 -0.000100 0.000051
N 0.020904 1.815096 1.825928 -0.000079 0.000120 -0.000022
N 0.022904 1.817960 6.954536 0.000028 0.000028 -0.000037
N -0.021405 1.787914 -3.263578 -0.000158 -0.000039 -0.000087
N 3.192516 -3.678831 1.762243 -0.000053 0.000043 -0.000104
N 3.149078 -3.692736 6.977394 -0.000098 -0.000048 -0.000023
N 3.142264 -3.748146 -3.356385 0.000084 -0.000022 -0.000009
N 1.596875 -0.930144 1.826015 0.000122 -0.000029 -0.000145
N 1.567073 -0.959261 6.970894 -0.000007 -0.000037 -0.000047
N 1.519816 -0.930199 -3.348124 -0.000104 -0.000104 0.000006
N 3.144822 1.743917 1.758979 -0.000101 0.000044 -0.000085
N 3.147256 1.787977 6.913500 0.000005 -0.000021 -0.000014
N 3.147016 1.738225 -3.297069 0.000083 0.000073 -0.000017
N 6.278504 -3.722054 1.816198 -0.000008 -0.000080 -0.000057
N 6.313973 -3.697289 6.920016 0.000018 0.000004 -0.000034
N 6.275569 -3.721444 -3.366812 0.000144 0.000044 -0.000054
N 4.694053 -0.926914 1.771684 -0.000160 -0.000180 0.000025
N 4.727607 -0.958332 6.973808 -0.000094 0.000147 -0.000065
N 4.729624 -0.901890 -3.373409 0.000044 -0.000071 -0.000087
N -3.236180 1.766098 1.739761 0.000117 0.000105 0.000101
N -3.236207 1.817654 6.957484 0.000087 0.000054 -0.000052
N -3.198287 1.791967 -3.253158 0.000162 -0.000052 -0.000055
N -0.026765 -3.693892 1.727705 -0.000007 0.000008 -0.000076
N -0.019501 -3.695767 6.927927 -0.000023 0.000028 -0.000055
N 0.023597 -3.675364 -3.351064 -0.000110 0.000049 0.000011
N -1.603029 -0.955943 1.725097 -0.000061 -0.000035 -0.000047
N -1.605160 -1.006651 6.915311 0.000073 -0.000026 -0.000006
N -1.565374 -0.932988 -3.345839 0.000029 -0.000029 -0.000021
