108
Energy=-1214844.857885 Lattice="9.478136 0.000000 0.000000 -4.745756 8.206050 0.000000 -0.000667 0.012999 15.302191" Stress="-0.000049 0.000021 0.000001 0.000021 -0.000064 -0.000013 0.000001 -0.000013 0.000004" Properties=species:S:1:pos:R:3:forces:R:3
Al 1.546712 0.915324 2.440726 -0.011804 -0.012420 0.004842
Al 1.560181 0.878752 7.506265 -0.000021 0.007065 0.003150
Al 1.559626 0.879709 -2.752656 0.000079 -0.006962 0.002360
Al -0.020170 3.564447 2.445317 -0.002924 0.132922 0.039489
Al -0.017507 3.608355 7.508795 -0.001333 -0.003343 0.001213
Al -0.015825 3.600032 -2.745182 0.002032 -0.003320 0.001736
Al 3.155672 -1.852646 2.434707 0.010230 -0.014888 -0.001516
Al 3.147561 -1.870708 7.499224 0.004470 0.000066 0.002311
Ga 3.167905 -1.883074 -2.746438 -0.003953 -0.001231 0.004670
Al -4.815709 0.928233 2.462113 0.005465 -0.021716 -0.002227
Al -4.783907 0.900283 7.506575 0.002203 -0.007182 -0.001457
Al -4.782650 0.879209 -2.742922 -0.000740 -0.004745 0.001742
Al -6.323080 3.584359 2.450250 -0.024354 0.015551 0.002493
Al -6.342455 3.610877 7.514199 -0.001255 -0.001153 0.001351
Al -6.359324 3.594944 -2.754886 0.001444 0.000833 0.005522
Ga -3.176260 -1.861767 2.435802 -0.004216 -0.006508 -0.003750
Ga -3.179640 -1.863448 7.502320 -0.000068 0.000495 -0.001991
Al -3.174738 -1.878606 -2.739995 -0.000677 -0.002481 0.003063
Al -1.627131 0.910074 2.450911 0.019018 -0.005870 0.001422
Al -1.627451 0.881978 7.505593 0.006517 0.009289 -0.005435
Ga -1.639830 0.888157 -2.740226 0.011442 -0.000956 0.000666
Ga -3.212414 3.582018 2.444194 0.015274 0.011215 -0.002464
Al -3.200550 3.615143 7.507133 0.007666 0.000634 -0.000937
Ga -3.212832 3.600455 -2.750389 0.007146 0.004846 0.004816
Al -0.034629 -1.887671 2.423721 0.005533 0.003633 0.001553
Ga -0.017974 -1.847155 7.510760 0.004285 0.002242 -0.001882
Ga -0.037520 -1.873447 -2.742986 0.011449 0.001794 0.003942
Al -0.019729 1.794922 4.987723 -0.005261 -0.001313 0.002141
Al -0.031191 1.778870 -5.294293 0.003177 0.001949 0.002487
Ga -0.013857 1.784804 -0.146372 -0.004056 0.008006 0.005660
Al 3.161371 -3.694759 4.981522 -0.003812 -0.000910 -0.002568
Al 3.155733 -3.699429 -5.286480 -0.004026 -0.002706 -0.001821
Al 3.168884 -3.696458 -0.197636 -0.005656 -0.003008 0.020765
Ga 1.593556 -0.958287 4.979374 -0.009470 0.004166 -0.003753
Al 1.592232 -0.968677 -5.276486 -0.006167 0.005791 -0.000381
Ga 1.592642 -0.977377 -0.132487 -0.006326 0.001715 -0.008325
Al 3.133560 1.802694 4.991544 -0.001745 -0.000849 0.001261
Al 3.127129 1.790623 -5.276517 -0.001883 -0.002078 0.000524
Ga 3.122980 1.783341 -0.151723 -0.000994 0.002399 0.010012
Ga 6.305658 -3.693761 4.984385 -0.001214 0.000119 -0.003077
Al 6.302561 -3.703019 -5.269931 -0.001033 -0.003079 0.001314
Al 6.297853 -3.691868 -0.209396 -0.001308 -0.001224 0.023741
Al 4.727975 -0.950478 4.983875 -0.000634 0.005077 -0.001615
Ga 4.732803 -0.970994 -5.272684 -0.003512 0.008729 -0.000677
Al 4.733815 -0.976090 -0.205338 -0.001280 0.006498 0.018925
Al -3.205363 1.801803 4.995002 -0.000369 -0.001597 0.001574
Al -3.198867 1.797669 -5.293908 -0.002199 -0.000116 0.001778
Ga -3.206938 1.780552 -0.140097 -0.000515 0.000892 0.002319
Al -0.020057 -3.693122 4.990212 -0.002927 0.003816 -0.001167
Al -0.026860 -3.699492 -5.280154 -0.000017 0.001374 -0.001216
Ga -0.040987 -3.686320 -0.135159 0.000514 -0.001624 -0.001980
Al -1.606266 -0.942668 4.959927 0.001028 0.004273 0.003729
Ga -1.598052 -0.957334 -5.275401 0.000331 0.009276 -0.000940
Al -1.602499 -0.967173 -0.197128 -0.003389 0.005114 0.016221
N 1.554794 0.917734 4.376768 -0.002149 -0.000341 -0.007509
N 1.553280 0.878729 -5.873758 0.000929 -0.006607 0.000904
N 1.552799 0.875071 -0.803864 -0.000830 -0.009165 -0.009147
N -0.032696 3.592628 4.378680 -0.011671 -0.003967 -0.003023
N -0.016817 3.601152 -5.872092 -0.000392 0.000513 -0.001432
N -0.016506 3.615325 -0.807363 -0.001972 0.010663 -0.010569
N 3.177364 -1.877506 4.370350 0.007688 -0.005393 -0.006045
N 3.141970 -1.887368 -5.880854 -0.010593 -0.006138 -0.005473
N 3.171867 -1.892001 -0.784633 0.008843 -0.004214 0.006169
N -4.783629 0.901476 4.396261 0.003059 -0.006325 -0.003552
N -4.778309 0.902666 -5.878848 0.001917 0.003445 -0.003120
N -4.781875 0.863133 -0.805223 0.000797 -0.016085 -0.004880
N -6.322633 3.599518 4.382647 0.011955 -0.004446 -0.006858
N -6.347864 3.602659 -5.865806 0.000450 0.001172 -0.001247
N -6.365133 3.611189 -0.802095 -0.008149 0.003312 -0.011701
N -3.175085 -1.847358 4.396502 -0.001189 0.013391 0.007047
N -3.171859 -1.901226 -5.863046 0.000892 -0.009460 0.003765
N -3.174066 -1.878361 -0.803964 0.001037 0.002834 0.000912
N -1.638560 0.904507 4.387171 0.010156 -0.004089 -0.005556
N -1.625701 0.928077 -5.904116 0.002400 -0.002864 0.006161
N -1.636639 0.868333 -0.780864 0.011020 -0.014662 0.010399
N -3.203716 3.611087 4.408909 0.006049 0.002056 0.008729
N -3.202981 3.609374 -5.876601 0.005510 0.002849 0.000079
N -3.195634 3.615791 -0.778987 0.016067 0.006782 0.005145
N -0.053823 -1.878200 4.361473 0.000159 -0.002198 -0.003314
N -0.007357 -1.875917 -5.849656 0.014540 -0.004916 0.006828
N -0.045671 -1.865282 -0.779104 -0.002493 0.009869 0.004433
N 0.101409 2.065435 1.848643 -0.020225 -0.179651 -0.042345
N -0.011550 1.789776 6.914514 -0.005751 -0.002981 -0.001414
N 0.010335 1.788001 -3.363825 -0.001947 0.002544 -0.001106
N 3.175432 -3.691324 1.834966 -0.002250 0.005616 -0.016020
N 3.162121 -3.689248 6.909904 -0.008332 -0.000075 -0.000351
N 3.182378 -3.715674 -3.377138 -0.000973 -0.007197 -0.002511
N 1.603734 -1.030765 1.800100 -0.022462 0.028577 0.022604
N 1.617767 -0.913733 6.931889 -0.001812 -0.004447 0.003798
N 1.593419 -0.956240 -3.359859 -0.008887 0.014639 -0.004251
N 3.050874 1.808500 1.902263 0.034805 -0.007274 -0.018308
N 3.128814 1.801615 6.916617 -0.000396 -0.000578 -0.002762
N 3.128082 1.783237 -3.349275 0.001268 -0.000851 0.000590
N 6.305348 -3.713705 1.826575 0.005927 -0.001035 -0.015496
N 6.303427 -3.711986 6.929996 0.002088 -0.008735 0.006656
N 6.299348 -3.696316 -3.344851 0.000603 0.001875 0.001114
N 4.711058 -0.930151 1.826569 -0.012432 0.014514 -0.017416
N 4.707245 -0.947726 6.905190 -0.010869 0.012601 -0.004703
N 4.751727 -0.960853 -3.328911 0.010163 0.013512 0.010391
N -3.178367 1.723554 1.841543 -0.014538 0.004083 -0.000553
N -3.201331 1.797290 6.917631 0.000346 -0.000343 -0.002636
N -3.229840 1.775393 -3.363021 -0.006849 -0.006640 -0.010840
N -0.069839 -3.706223 1.822462 0.001417 0.006417 0.005790
N -0.023993 -3.695587 6.909450 -0.000156 -0.008272 -0.005062
N -0.051922 -3.700159 -3.377133 -0.009523 -0.006380 -0.002666
N -1.579308 -0.940041 1.834066 0.017326 0.018338 -0.019913
N -1.601168 -0.904950 6.906861 0.001420 0.004651 -0.015286
N -1.619639 -0.972369 -3.336326 -0.012155 0.002575 0.005938
