108
Energy=-1260622.887000 Lattice="9.491205 0.000000 0.000000 -4.746543 8.216542 0.000000 0.001126 0.004745 15.311173" Stress="-0.000004 -0.000001 0.000001 -0.000001 -0.000007 0.000001 0.000001 0.000001 -0.000001" Properties=species:S:1:pos:R:3:forces:R:3
Al 1.560212 0.877715 2.387861 0.000225 -0.000277 0.000103
Al 1.560336 0.884848 7.500407 -0.000323 -0.000323 0.000183
Al 1.562177 0.883767 -2.681597 0.000404 -0.000137 -0.000222
Al -0.008051 3.605637 2.427509 0.000040 0.000272 0.000198
Al -0.014811 3.614072 7.495714 -0.000295 -0.000139 -0.000190
Al -0.026927 3.604506 -2.711822 0.000418 0.000392 -0.000427
Al 3.146822 -1.857312 2.412956 -0.000386 0.000130 -0.000127
Al 3.151335 -1.860841 7.507558 -0.000034 -0.000413 -0.000301
Ga 3.154420 -1.867396 -2.704657 -0.000017 0.000014 0.000128
Al -4.774774 0.870272 2.404015 -0.000134 0.000107 0.000136
Al -4.771714 0.873569 7.518479 -0.000102 0.000094 0.000063
Al -4.765545 0.877873 -2.718147 -0.000030 -0.000133 0.000072
Al -6.356856 3.609600 2.387509 -0.000191 0.000090 -0.000028
Al -6.368269 3.605398 7.521224 0.000207 -0.000009 0.000181
Ga -6.361839 3.594019 -2.695726 -0.000225 0.000190 0.000102
Al -3.199070 -1.873138 2.439093 0.000198 -0.000640 0.000215
Ga -3.191040 -1.867393 7.512068 0.000016 -0.000053 0.000073
Al -3.192559 -1.857779 -2.740500 0.000011 -0.000455 -0.000491
Ga -1.602154 0.885669 2.401987 0.000099 -0.000256 0.000174
Al -1.598743 0.881831 7.511279 -0.000283 -0.000141 -0.000146
Al -1.614165 0.882538 -2.702635 0.000034 0.000050 -0.000125
Ga -3.194236 3.609574 2.418701 -0.000180 -0.000154 0.000310
Ga -3.171842 3.609409 7.504758 0.000117 -0.000059 -0.000030
Al -3.175173 3.591946 -2.706446 0.000049 0.000118 -0.000044
Al -0.015391 -1.868930 2.382602 -0.000125 -0.000156 -0.000211
Al -0.022136 -1.849976 7.525273 -0.000076 -0.000112 0.000188
Ga -0.028125 -1.852247 -2.686309 0.000041 -0.000200 0.000210
Al -0.026028 1.806053 4.972129 -0.000106 -0.000002 0.000201
Ga -0.026856 1.792901 -5.253862 0.000129 0.000096 0.000332
Al -0.014934 1.784488 -0.165944 -0.000343 -0.000063 -0.000507
Al 3.166862 -3.690642 4.951510 0.000007 -0.000038 0.000041
Al 3.159177 -3.695755 -5.254700 -0.000062 0.000040 0.000000
Ga 3.135612 -3.708813 -0.137738 -0.000162 0.000200 0.000185
Ga 1.570043 -0.952876 4.961985 -0.000423 0.000125 -0.000024
Ga 1.571984 -0.946056 -5.269166 -0.000301 0.000231 0.000310
Al 1.559635 -0.937575 -0.126944 -0.000389 0.000072 0.000087
Ga 3.143966 1.788658 4.952144 0.000123 -0.000066 0.000030
Al 3.145512 1.779065 -5.264968 -0.000160 0.000112 0.000094
Al 3.142837 1.774650 -0.136322 -0.000140 0.000418 0.000072
Al 6.290769 -3.698263 4.947397 0.000173 -0.000321 -0.000121
Al 6.293898 -3.691230 -5.256758 -0.000014 -0.000059 0.000445
Ga 6.302461 -3.697798 -0.132993 -0.000071 -0.000251 0.000301
Al 4.722138 -0.950096 4.951568 -0.000126 -0.000177 0.000086
Al 4.729336 -0.946382 -5.257760 0.000027 -0.000054 0.000115
Ga 4.725457 -0.932388 -0.136724 -0.000133 -0.000017 -0.000116
Al -3.185268 1.777792 4.975857 -0.000089 -0.000057 -0.000221
Al -3.191560 1.771476 -5.245085 -0.000032 0.000075 -0.000076
Al -3.200120 1.792292 -0.174761 0.000107 0.000059 -0.000085
Ga -0.031358 -3.692399 4.969690 -0.000019 -0.000101 0.000215
Ga -0.029601 -3.698790 -5.260038 0.000044 -0.000128 0.000104
Al -0.014283 -3.703196 -0.142334 -0.000036 -0.000066 0.000004
Ga -1.610046 -0.943669 4.957161 -0.000089 -0.000043 0.000104
Al -1.621163 -0.943028 -5.252048 0.000029 0.000017 0.000103
Ga -1.606231 -0.944571 -0.139879 -0.000022 0.000041 0.000030
N 1.512455 0.899585 4.308477 0.000247 0.000201 -0.000206
N 1.594188 0.903670 -5.909883 0.000306 -0.000111 -0.000267
N 1.564490 0.872844 -0.752892 0.000258 0.000128 0.000234
N -0.020663 3.605243 4.348157 -0.000034 -0.000093 -0.000262
N -0.021870 3.656699 -5.897421 0.000001 0.000106 0.000001
N -0.021344 3.569977 -0.805098 -0.000012 -0.000063 -0.000012
N 3.181124 -1.884636 4.328388 0.000293 0.000030 0.000061
N 3.190020 -1.894074 -5.882785 0.000108 0.000072 0.000128
N 3.104042 -1.843354 -0.735028 -0.000016 -0.000108 0.000030
N -4.724415 0.855653 4.321981 0.000157 0.000005 0.000013
N -4.766759 0.872988 -5.867356 0.000126 0.000074 -0.000010
N -4.776430 0.920947 -0.795764 0.000225 -0.000199 -0.000355
N -6.389618 3.634583 4.299181 -0.000101 0.000211 -0.000103
N -6.400665 3.586277 -5.873808 -0.000102 -0.000045 -0.000019
N -6.315642 3.583045 -0.716241 0.000204 -0.000151 -0.000116
N -3.228728 -1.888920 4.353357 -0.000112 0.000236 -0.000199
N -3.188487 -1.868546 -5.815368 -0.000089 0.000082 -0.000027
N -3.189333 -1.867152 -0.830079 -0.000086 0.000210 0.000116
N -1.601492 0.932258 4.377392 -0.000055 0.000013 -0.000032
N -1.647484 0.855292 -5.881113 0.000002 -0.000009 -0.000121
N -1.608541 0.921387 -0.779367 0.000208 0.000130 0.000000
N -3.147116 3.587196 4.400467 -0.000051 0.000032 -0.000146
N -3.138877 3.582900 -5.832286 -0.000003 -0.000110 0.000028
N -3.224621 3.591071 -0.785437 0.000086 -0.000217 0.000032
N -0.017623 -1.865290 4.286252 0.000191 -0.000080 -0.000135
N -0.067123 -1.836797 -5.883150 0.000045 -0.000225 -0.000093
N 0.018547 -1.884962 -0.709933 0.000204 -0.000220 0.000151
N 0.018233 1.814816 1.754144 0.000093 0.000074 0.000410
N -0.021864 1.791313 6.899517 -0.000112 -0.000018 -0.000101
N -0.019725 1.780016 -3.266640 -0.000366 -0.000003 0.000084
N 3.187403 -3.676249 1.840365 -0.000297 0.000394 -0.000296
N 3.190723 -3.661417 6.868217 0.000095 0.000180 0.000115
N 3.144050 -3.739931 -3.334461 -0.000019 -0.000179 -0.000004
N 1.565880 -0.949270 1.796904 -0.000000 0.000201 -0.000104
N 1.562821 -0.952257 6.949942 0.000019 0.000297 0.000014
N 1.561554 -0.901952 -3.302682 -0.000198 0.000354 0.000023
N 3.143437 1.778866 1.791621 -0.000003 0.000008 0.000200
N 3.146955 1.788834 6.936462 0.000107 0.000103 -0.000063
N 3.136128 1.733856 -3.343194 -0.000033 -0.000064 -0.000012
N 6.297317 -3.687146 1.848349 0.000123 0.000187 -0.000288
N 6.308862 -3.737653 6.866679 0.000002 0.000035 0.000118
N 6.262721 -3.675684 -3.339159 -0.000091 0.000118 0.000105
N 4.727967 -0.951600 1.845567 0.000267 0.000133 0.000005
N 4.682847 -0.920682 6.874692 0.000010 -0.000180 -0.000220
N 4.758335 -0.922530 -3.343449 0.000027 0.000176 0.000008
N -3.232683 1.763198 1.738427 0.000146 -0.000012 -0.000102
N -3.190900 1.734410 6.886526 0.000142 -0.000046 -0.000049
N -3.188158 1.781939 -3.319763 0.000113 -0.000058 0.000022
N -0.058948 -3.675187 1.773445 0.000354 0.000031 -0.000058
N -0.068328 -3.664725 6.949186 0.000017 0.000019 -0.000102
N 0.014720 -3.714232 -3.293145 0.000103 -0.000069 -0.000068
N -1.617068 -0.998387 1.836615 -0.000097 0.000362 0.000005
N -1.564603 -0.926349 6.928667 0.000252 0.000143 -0.000058
N -1.640558 -0.921413 -3.331908 -0.000033 0.000073 0.000019
