108
Energy=-1.855704e+06 Lattice="9.574910e+00 0.000000e+00 0.000000e+00 -4.793032e+00 8.287689e+00 0.000000e+00 -1.181957e-02 1.603641e-02 1.548229e+01" Stress="9.066185e-04 -1.153600e-04 -1.068795e-04 -1.142009e-04 -3.573170e-06 4.756809e-04 -1.255251e-04 4.711509e-04 2.792847e-03" Properties=species:S:1:pos:R:3:forces:R:3 Config_type=AlGaN_super3_31_0_7.xyz
Al 1.555935e+00 8.865217e-01 2.458415e+00 2.017078e-03 -2.207111e-03 1.129363e-03
Al 1.544194e+00 9.047435e-01 7.563374e+00 -7.263252e-04 -1.126113e-03 5.692361e-04
Al 1.571490e+00 8.629982e-01 -2.725252e+00 -1.282547e-04 -9.902313e-04 -7.839525e-04
Al -1.089464e-02 3.613299e+00 2.411198e+00 -2.019253e-03 2.299307e-02 1.311992e-02
Al -2.436114e-02 3.638375e+00 7.588537e+00 -7.264408e-03 -2.891728e-03 -1.789528e-03
Ga -2.620306e-02 3.636708e+00 -2.738707e+00 -4.149912e-05 -5.714612e-04 -7.135228e-04
Al 3.198454e+00 -1.847622e+00 2.349148e+00 -1.237282e-02 -1.370112e-02 2.189494e-02
Ga 3.162878e+00 -1.888742e+00 7.588226e+00 -5.951603e-04 -8.801569e-04 4.766652e-04
Al 3.177750e+00 -1.899159e+00 -2.714048e+00 -1.307958e-04 3.374019e-04 -7.001369e-04
Ga -4.826349e+00 8.940213e-01 2.454890e+00 1.779671e-03 1.744008e-03 9.456917e-04
Ga -4.824059e+00 9.001788e-01 7.568609e+00 4.923059e-04 -1.246822e-03 1.264032e-04
Ga -4.819047e+00 8.626788e-01 -2.709123e+00 9.467292e-04 -2.971084e-04 -8.798000e-04
Ga -6.430640e+00 3.667411e+00 2.479860e+00 1.678530e-03 1.596521e-03 -6.594105e-04
Ga -6.428336e+00 3.645487e+00 7.549503e+00 6.340334e-04 8.443619e-04 3.071216e-04
Ga -6.416519e+00 3.634409e+00 -2.715639e+00 4.037264e-04 1.565801e-04 -1.087602e-03
Al -3.210721e+00 -1.873568e+00 2.439048e+00 -4.775113e-04 -1.564369e-03 1.725426e-03
Ga -3.223092e+00 -1.883413e+00 7.569566e+00 2.584216e-04 5.753214e-04 8.822276e-04
Al -3.209309e+00 -1.889104e+00 -2.706591e+00 2.351867e-04 7.837861e-04 -3.851221e-04
Ga -1.627087e+00 8.903943e-01 2.450822e+00 -1.541764e-03 -1.703290e-03 1.830851e-03
Al -1.617631e+00 9.204392e-01 7.562183e+00 2.562584e-03 -4.498521e-04 -9.620196e-05
Ga -1.614840e+00 8.726095e-01 -2.712940e+00 1.371321e-03 -9.593490e-04 1.865506e-05
Ga -3.206021e+00 3.668198e+00 2.451677e+00 2.562564e-03 1.649506e-03 -9.368051e-05
Al -3.215646e+00 3.648378e+00 7.565294e+00 1.777869e-03 1.464341e-03 3.617841e-04
Ga -3.197727e+00 3.647715e+00 -2.712682e+00 6.435250e-04 -2.309434e-04 4.318101e-04
Al -1.846598e-02 -1.858181e+00 2.436853e+00 1.415302e-03 -1.007880e-03 -5.555256e-04
Ga -2.382422e-02 -1.866486e+00 7.574713e+00 1.159914e-03 -2.503683e-04 8.987673e-04
Ga -1.348348e-02 -1.870584e+00 -2.700475e+00 8.140446e-04 1.418511e-04 -9.995343e-05
Al -1.935383e-02 1.825601e+00 5.001111e+00 -1.083388e-03 1.699985e-03 2.492019e-03
Al -1.937796e-02 1.794381e+00 -5.337940e+00 -1.425489e-03 5.673879e-05 2.226122e-04
Ga -1.901046e-02 1.781737e+00 -1.320285e-01 -1.890563e-03 -1.014975e-05 3.869172e-03
Ga 3.173654e+00 -3.736864e+00 4.996067e+00 3.233532e-03 2.470392e-03 -1.188423e-03
Al 3.181024e+00 -3.743830e+00 -5.330507e+00 -8.530642e-04 -2.880177e-04 1.666020e-04
Al 3.181644e+00 -3.733287e+00 -1.324869e-01 -2.727614e-03 6.900890e-04 6.020385e-03
Ga 1.570796e+00 -9.463663e-01 4.984923e+00 2.041420e-03 -5.316681e-04 4.068362e-04
Ga 1.592334e+00 -9.618321e-01 -5.302922e+00 -1.348967e-03 9.218323e-04 7.045873e-05
Al 1.586872e+00 -9.706259e-01 -1.353727e-01 -3.638310e-03 2.950502e-04 1.933728e-03
Al 3.146628e+00 1.819427e+00 5.010814e+00 -4.707840e-04 -2.066211e-04 2.568590e-04
Ga 3.145847e+00 1.788883e+00 -5.316189e+00 1.366657e-04 -1.991928e-04 5.670466e-04
Ga 3.159605e+00 1.779526e+00 -1.263257e-01 5.552205e-04 1.271015e-03 -1.084924e-04
Al 6.350007e+00 -3.728074e+00 4.991975e+00 -3.439163e-03 -1.662874e-03 -1.596991e-04
Ga 6.349564e+00 -3.737562e+00 -5.310888e+00 1.141475e-04 -1.617011e-04 7.059233e-04
Ga 6.357510e+00 -3.719737e+00 -1.215788e-01 1.514776e-03 1.729574e-03 -9.384769e-04
Ga 4.761526e+00 -9.553272e-01 4.978150e+00 -3.748621e-03 -1.640292e-03 1.326431e-03
Ga 4.769653e+00 -9.840658e-01 -5.282766e+00 -7.858282e-04 6.176123e-04 3.125667e-04
Ga 4.777646e+00 -9.840374e-01 -1.320394e-01 9.652615e-04 2.767983e-03 -4.923234e-03
Al -3.227531e+00 1.823867e+00 5.033740e+00 1.144698e-04 8.214864e-04 3.135485e-04
Ga -3.197058e+00 1.809437e+00 -5.339482e+00 2.211045e-05 2.338396e-05 8.667086e-04
Al -3.206060e+00 1.800386e+00 -1.392963e-01 -4.766222e-04 -1.364364e-04 3.328874e-03
Al -2.937643e-02 -3.719997e+00 5.006518e+00 5.001906e-04 2.089433e-04 -6.182977e-04
Ga -2.891891e-03 -3.733410e+00 -5.319202e+00 4.067543e-04 4.058621e-05 8.435698e-04
Ga -4.276226e-03 -3.723318e+00 -1.288908e-01 5.998284e-05 1.805629e-03 4.652593e-03
Ga -1.624045e+00 -9.528589e-01 4.995795e+00 -1.915774e-04 3.896568e-04 1.684012e-03
Ga -1.611584e+00 -9.535023e-01 -5.316347e+00 -3.716468e-04 1.236949e-03 5.567522e-04
Al -1.614720e+00 -9.624407e-01 -1.247260e-01 -5.779487e-05 -6.694662e-04 1.586655e-03
N 1.561182e+00 9.378719e-01 4.374081e+00 1.901584e-04 -1.457019e-04 -8.112067e-04
N 1.530579e+00 8.958205e-01 -5.988529e+00 -3.545745e-04 -6.448462e-04 -1.161441e-03
N 1.571283e+00 8.254537e-01 -8.045982e-01 -5.255067e-04 -1.111278e-03 1.980860e-03
N 7.430277e-03 3.622939e+00 4.346509e+00 2.092918e-03 -6.124018e-04 1.370080e-03
N -5.645352e-02 3.609153e+00 -5.954860e+00 -8.356810e-04 -5.997499e-04 -9.055402e-04
N -5.971933e-02 3.652220e+00 -7.559284e-01 -5.398895e-04 -7.830844e-04 6.289053e-04
N 3.157666e+00 -1.884533e+00 4.310033e+00 2.320573e-03 2.175892e-03 -5.018909e-03
N 3.179488e+00 -1.936703e+00 -5.914526e+00 -7.957423e-05 -6.363763e-04 -4.129492e-04
N 3.138232e+00 -1.920399e+00 -7.733777e-01 -1.385365e-03 -2.817939e-04 1.578144e-03
N -4.820340e+00 9.445233e-01 4.435491e+00 7.750946e-04 1.014216e-03 -4.902055e-04
N -4.815401e+00 8.708175e-01 -5.933406e+00 6.993378e-04 -4.414521e-04 -3.095642e-04
N -4.772678e+00 8.956603e-01 -7.345854e-01 8.885246e-04 -2.770257e-04 6.529798e-04
N -6.416420e+00 3.655656e+00 4.458997e+00 -2.608832e-05 -1.541062e-04 1.359957e-03
N -6.407606e+00 3.637249e+00 -5.949563e+00 -1.175197e-04 2.792274e-04 -1.094182e-03
N -6.407866e+00 3.634654e+00 -7.504052e-01 2.332362e-04 -6.309352e-05 7.669487e-04
N -3.216181e+00 -1.920365e+00 4.351988e+00 1.323442e-03 -3.047949e-04 -1.101285e-03
N -3.209455e+00 -1.891671e+00 -5.941648e+00 2.709065e-04 1.972389e-04 -9.578864e-04
N -3.163381e+00 -1.868421e+00 -7.895472e-01 7.336215e-04 1.161936e-03 8.563985e-05
N -1.636193e+00 9.442153e-01 4.435222e+00 1.345101e-03 3.091363e-05 -1.316071e-03
N -1.580222e+00 9.037057e-01 -5.988550e+00 2.596188e-03 -3.532167e-04 -7.980290e-04
N -1.657480e+00 8.529751e-01 -7.224140e-01 1.169104e-03 -2.175942e-04 1.083818e-03
N -3.261470e+00 3.631118e+00 4.424157e+00 -1.869215e-03 -2.164096e-03 6.289466e-04
N -3.177731e+00 3.664489e+00 -5.988149e+00 1.634659e-03 4.840709e-04 -1.320929e-03
N -3.169136e+00 3.616732e+00 -7.252683e-01 1.646426e-03 5.302346e-04 1.892498e-04
N -2.911085e-02 -1.913384e+00 4.353143e+00 -2.059459e-04 -6.115226e-04 -5.170444e-04
N -1.487569e-02 -1.884785e+00 -5.933376e+00 1.033815e-03 8.742327e-05 -5.028180e-04
N -1.832514e-02 -1.836480e+00 -7.144192e-01 1.178087e-03 1.346004e-03 6.207519e-04
N 2.010103e-03 1.839734e+00 1.889671e+00 5.065500e-03 -1.377607e-02 -1.602801e-02
N -2.490581e-02 1.823424e+00 6.943808e+00 -1.220981e-03 -1.797699e-03 2.969834e-04
N 1.909571e-02 1.764483e+00 -3.394438e+00 2.023987e-04 -9.995453e-05 -8.947628e-04
N 3.236595e+00 -3.695865e+00 1.820756e+00 -3.208056e-03 -7.883354e-04 -1.191982e-02
N 3.174475e+00 -3.764504e+00 6.979271e+00 2.683796e-04 -1.381714e-03 2.759668e-03
N 3.177902e+00 -3.690272e+00 -3.397408e+00 -4.645655e-04 1.127358e-03 -1.128949e-03
N 1.579901e+00 -9.474532e-01 1.829331e+00 -1.045893e-03 3.663339e-03 -9.325292e-03
N 1.578751e+00 -9.096280e-01 6.966545e+00 -1.878252e-03 2.292103e-03 -1.151529e-04
N 1.628361e+00 -9.502492e-01 -3.312697e+00 -2.008169e-04 1.112877e-03 4.483775e-04
N 3.113403e+00 1.799594e+00 1.850222e+00 -1.845416e-03 -2.294105e-03 -3.684488e-04
N 3.111285e+00 1.783844e+00 6.925477e+00 -2.244724e-04 -7.608157e-04 -1.065202e-03
N 3.125198e+00 1.768824e+00 -3.332157e+00 -6.538603e-04 -4.312525e-04 -2.483778e-04
N 6.325743e+00 -3.674241e+00 1.850617e+00 -2.043970e-03 -6.840565e-03 1.248533e-05
N 6.294738e+00 -3.745533e+00 6.919290e+00 4.053096e-03 2.661011e-03 -1.448023e-03
N 6.364055e+00 -3.684272e+00 -3.332355e+00 -1.084228e-04 4.167221e-04 1.448222e-05
N 4.768161e+00 -9.877671e-01 1.846498e+00 8.909904e-03 3.419083e-03 -2.588682e-03
N 4.754530e+00 -9.590481e-01 6.948046e+00 4.678368e-04 1.476138e-03 -8.745274e-04
N 4.772298e+00 -1.020105e+00 -3.292706e+00 -6.657436e-04 -6.130674e-04 8.181792e-04
N -3.224024e+00 1.816400e+00 1.782246e+00 -3.066439e-05 -6.539488e-04 -4.504346e-03
N -3.188881e+00 1.836924e+00 6.955724e+00 3.224297e-04 -2.262319e-04 -2.506642e-04
N -3.212471e+00 1.798576e+00 -3.357504e+00 -5.666132e-04 -1.158390e-04 -4.561145e-04
N -2.416284e-02 -3.665593e+00 1.863017e+00 -1.950723e-04 -1.425880e-03 -5.250400e-03
N 1.091848e-02 -3.733208e+00 6.925824e+00 5.243164e-04 -3.725129e-04 -5.340405e-04
N -1.270382e-02 -3.727874e+00 -3.338860e+00 -2.361578e-04 2.937200e-04 -9.042168e-05
N -1.620648e+00 -9.965959e-01 1.814759e+00 -5.812515e-05 1.540584e-03 -2.136690e-03
N -1.624764e+00 -9.056511e-01 6.972505e+00 -7.189727e-04 1.853299e-03 -1.096227e-04
N -1.651081e+00 -9.879992e-01 -3.332789e+00 -1.249745e-03 6.740207e-05 -3.619966e-04
