108
Energy=-1031745.364653 Lattice="9.467644 0.000000 0.000000 -4.735671 8.195128 0.000000 -0.001421 -0.004559 15.250517" Stress="0.000003 -0.000001 -0.000000 -0.000001 -0.000001 -0.000001 -0.000000 -0.000001 0.000008" Properties=species:S:1:pos:R:3:forces:R:3
Al 1.552255 0.876377 2.395637 0.000009 -0.000080 -0.000013
Al 1.547872 0.874071 7.466835 -0.000050 0.000108 0.000070
Al 1.537983 0.865889 -2.689031 0.000061 0.000201 0.000017
Al -0.029845 3.584195 2.433319 0.000239 0.000307 -0.000309
Al -0.018304 3.595989 7.467060 0.000040 -0.000018 0.000038
Al -0.025464 3.590788 -2.723057 -0.000236 0.000185 -0.000207
Al 3.122828 -1.860901 2.427544 0.000028 -0.000093 -0.000292
Al 3.140758 -1.860660 7.476169 0.000043 -0.000001 0.000027
Al 3.128929 -1.854239 -2.722719 -0.000065 0.000020 0.000158
Al -4.763356 0.883704 2.419579 -0.000019 -0.000046 -0.000077
Al -4.757729 0.862200 7.456338 0.000009 0.000049 -0.000138
Ga -4.752723 0.867224 -2.690005 -0.000012 -0.000011 -0.000044
Al -6.326954 3.588068 2.424206 -0.000128 0.000133 -0.000106
Al -6.343343 3.603254 7.453118 0.000019 0.000008 -0.000098
Ga -6.344531 3.603252 -2.686779 -0.000031 -0.000010 -0.000027
Ga -3.178281 -1.859621 2.453072 0.000001 -0.000053 -0.000100
Al -3.177557 -1.862248 7.458289 -0.000004 0.000004 -0.000010
Ga -3.187205 -1.860763 -2.729052 0.000026 -0.000003 -0.000068
Al -1.592453 0.886723 2.422120 0.000006 -0.000384 -0.000130
Al -1.593735 0.865411 7.464823 0.000051 -0.000014 0.000010
Al -1.588688 0.887458 -2.708560 0.000162 -0.000450 -0.000155
Al -3.181999 3.599110 2.420207 -0.000005 0.000104 -0.000108
Ga -3.177381 3.601456 7.466687 0.000007 -0.000038 0.000019
Ga -3.167297 3.600497 -2.699692 0.000014 0.000048 -0.000039
Al -0.011628 -1.863994 2.409254 0.000230 -0.000129 0.000009
Al -0.030324 -1.857585 7.480349 -0.000032 0.000061 0.000069
Ga -0.007427 -1.846385 -2.703162 -0.000035 -0.000028 -0.000038
Al -0.027071 1.786323 4.943492 -0.000091 0.000007 0.000091
Al -0.031235 1.781935 -5.250419 -0.000008 0.000007 -0.000053
Al -0.023207 1.776791 -0.145834 -0.000022 0.000126 -0.000105
Al 3.141833 -3.689878 4.934365 -0.000010 0.000080 0.000144
Al 3.144850 -3.675158 -5.248099 0.000004 0.000012 0.000052
Ga 3.129562 -3.684743 -0.132399 0.000039 0.000036 -0.000019
Ga 1.553033 -0.950539 4.946872 -0.000059 0.000040 0.000016
Al 1.555720 -0.949618 -5.263861 -0.000087 0.000044 -0.000104
Al 1.557367 -0.941553 -0.128709 0.000142 0.000060 0.000045
Al 3.134939 1.785703 4.940463 -0.000119 -0.000020 0.000024
Ga 3.128814 1.782745 -5.260358 -0.000012 -0.000035 -0.000002
Al 3.126355 1.778008 -0.121966 0.000083 0.000095 -0.000125
Al 6.288442 -3.694350 4.955117 0.000069 0.000023 -0.000011
Al 6.284567 -3.677206 -5.278600 -0.000237 0.000145 0.000114
Ga 6.289858 -3.704196 -0.117936 -0.000015 -0.000078 0.000042
Al 4.711176 -0.945772 4.957456 -0.000202 -0.000096 0.000046
Al 4.712778 -0.954476 -5.274555 0.000066 0.000029 -0.000090
Ga 4.692127 -0.937509 -0.122868 -0.000061 -0.000048 -0.000043
Al -3.178152 1.776239 4.930211 -0.000007 -0.000005 0.000094
Al -3.164924 1.775077 -5.261722 0.000068 0.000152 -0.000158
Al -3.175567 1.785875 -0.113643 0.000225 -0.000011 0.000020
Al -0.029023 -3.686924 4.931990 -0.000056 0.000001 -0.000029
Al -0.023055 -3.670267 -5.268329 -0.000148 0.000035 -0.000102
Al -0.017192 -3.689802 -0.103733 -0.000009 -0.000026 0.000015
Al -1.598492 -0.945644 4.956140 0.000263 0.000056 0.000137
Al -1.598586 -0.940107 -5.271126 -0.000043 -0.000008 -0.000147
Ga -1.584673 -0.929948 -0.129095 -0.000016 0.000000 -0.000032
N 1.551841 0.919246 4.313886 0.000317 0.000021 -0.000021
N 1.508415 0.854310 -5.878106 0.000059 0.000020 0.000024
N 1.550797 0.868824 -0.747287 0.000008 0.000056 0.000061
N -0.022480 3.595204 4.345626 -0.000039 0.000082 0.000012
N -0.026986 3.599108 -5.862645 -0.000027 -0.000026 0.000057
N -0.024448 3.556265 -0.803936 0.000006 -0.000227 0.000193
N 3.172284 -1.882699 4.331422 0.000179 0.000031 0.000057
N 3.133638 -1.862034 -5.860160 0.000022 0.000026 0.000072
N 3.088941 -1.836425 -0.800798 0.000098 -0.000015 -0.000133
N -4.760219 0.871868 4.340565 -0.000022 -0.000036 -0.000013
N -4.714161 0.853860 -5.883245 -0.000116 -0.000200 0.000148
N -4.752298 0.923009 -0.710376 -0.000324 0.000004 0.000022
N -6.335886 3.597862 4.342681 -0.000026 -0.000020 0.000023
N -6.334759 3.651098 -5.888334 0.000365 -0.000072 -0.000093
N -6.291446 3.581581 -0.708700 0.000023 -0.000140 0.000038
N -3.177018 -1.861612 4.424793 -0.000281 -0.000136 -0.000062
N -3.175408 -1.856924 -5.867058 -0.000018 0.000012 0.000010
N -3.179089 -1.861385 -0.754593 0.000005 0.000077 -0.000001
N -1.596529 0.872289 4.339579 -0.000006 -0.000011 0.000018
N -1.595722 0.877520 -5.870494 0.000040 -0.000002 0.000007
N -1.605048 0.925730 -0.780298 0.000072 0.000066 0.000124
N -3.181042 3.600994 4.343065 0.000054 -0.000019 0.000035
N -3.174571 3.606369 -5.805716 0.000128 -0.000185 -0.000076
N -3.222208 3.578149 -0.714812 -0.000020 0.000017 0.000001
N -0.062810 -1.883713 4.319102 0.000018 0.000060 -0.000025
N -0.022170 -1.855965 -5.855199 0.000015 -0.000060 -0.000008
N 0.022180 -1.888312 -0.715941 -0.000066 -0.000094 -0.000020
N -0.026179 1.783245 1.785015 -0.000039 0.000016 -0.000000
N -0.024240 1.780007 6.858530 -0.000050 0.000047 0.000022
N -0.019831 1.778054 -3.320473 -0.000039 -0.000002 0.000005
N 3.137491 -3.683762 1.855798 0.000099 0.000142 0.000323
N 3.177558 -3.660280 6.846918 -0.000106 0.000013 -0.000136
N 3.176658 -3.655580 -3.327739 0.000169 -0.000159 -0.000037
N 1.559719 -0.949883 1.801287 0.000012 0.000063 0.000048
N 1.554788 -0.953829 6.921449 0.000076 -0.000114 -0.000122
N 1.595990 -0.918418 -3.342463 0.000080 -0.000167 -0.000021
N 3.131170 1.779772 1.802181 -0.000020 -0.000030 0.000041
N 3.130705 1.777640 6.863776 0.000015 -0.000004 -0.000008
N 3.088381 1.756377 -3.291030 -0.000032 -0.000076 0.000034
N 6.286731 -3.731880 1.855778 -0.000259 -0.000231 0.000200
N 6.285695 -3.688681 6.870328 0.000006 -0.000002 -0.000014
N 6.251535 -3.709640 -3.364264 0.000042 -0.000024 -0.000019
N 4.668834 -0.928277 1.848359 -0.000072 0.000061 0.000143
N 4.706383 -0.951957 6.871585 -0.000037 0.000033 -0.000007
N 4.668705 -0.966239 -3.363042 -0.000061 0.000025 0.000012
N -3.175155 1.778968 1.814876 0.000024 -0.000069 0.000038
N -3.176102 1.731773 6.840707 -0.000009 -0.000004 -0.000097
N -3.137628 1.755958 -3.353064 -0.000085 0.000052 0.000138
N -0.021769 -3.685851 1.817736 0.000031 -0.000023 0.000023
N -0.061127 -3.656304 6.843357 -0.000055 -0.000087 0.000168
N -0.024859 -3.680445 -3.366545 -0.000018 -0.000006 0.000161
N -1.560651 -0.921903 1.843543 -0.000200 0.000505 0.000079
N -1.594356 -0.949106 6.874044 -0.000031 0.000037 0.000016
N -1.595821 -0.897578 -3.352425 0.000011 0.000285 0.000291
