108
Energy=-5.282134e+05 Lattice="9.461266e+00 0.000000e+00 0.000000e+00 -4.737319e+00 8.189894e+00 0.000000e+00 1.179560e-03 2.283002e-02 1.517712e+01" Stress="1.329050e-02 3.831024e-03 4.696202e-05 3.817970e-03 1.890379e-02 1.041696e-03 4.953741e-05 1.052336e-03 1.879120e-02" Properties=species:S:1:pos:R:3:forces:R:3 Config_type=AlGaN_super3_2_2_2.xyz
Al 1.559397e+00 8.992494e-01 2.433141e+00 -5.238643e-04 -1.145207e-02 -7.047020e-03
Al 1.559204e+00 9.090268e-01 7.444601e+00 -4.351990e-04 -1.195144e-02 -4.539224e-03
Al 1.559207e+00 8.856130e-01 -2.719015e+00 -6.228076e-04 -1.207196e-02 -4.613100e-03
Al -6.807403e-03 3.610399e+00 2.430424e+00 -1.942417e-03 -2.068057e-03 -5.160939e-03
Al -6.378900e-03 3.617120e+00 7.443700e+00 -2.068576e-03 -7.441746e-04 -2.954179e-03
Al -7.636384e-03 3.597250e+00 -2.719143e+00 -2.116828e-03 -1.013475e-03 -3.112658e-03
Al 3.165794e+00 -1.871490e+00 2.423529e+00 -1.888816e-03 1.181679e-03 -5.292834e-03
Al 3.166243e+00 -1.863572e+00 7.444359e+00 -2.134723e-03 9.995196e-04 -3.497283e-03
Al 3.164352e+00 -1.885450e+00 -2.713063e+00 -2.024697e-03 1.348622e-03 -2.965661e-03
Al -4.773868e+00 9.054254e-01 2.423271e+00 1.269183e-03 -1.038324e-02 -5.070236e-03
Al -4.773811e+00 9.101633e-01 7.444386e+00 1.365462e-03 -1.111768e-02 -3.575279e-03
Al -4.775111e+00 8.883585e-01 -2.713322e+00 1.376995e-03 -1.130802e-02 -2.963325e-03
Al -6.338262e+00 3.614447e+00 2.423727e+00 -9.234804e-03 -7.291241e-03 4.547628e-03
Al -6.338539e+00 3.618724e+00 7.444735e+00 -2.704989e-04 2.884334e-05 -2.522327e-03
Al -6.342085e+00 3.595497e+00 -2.716378e+00 3.700510e-04 4.021041e-04 -3.548255e-03
Al -3.167281e+00 -1.869656e+00 2.425114e+00 -5.351372e-04 2.039390e-03 -4.612046e-03
Al -3.168470e+00 -1.862614e+00 7.443993e+00 9.185780e-05 2.217008e-03 -3.066412e-03
Al -3.168371e+00 -1.884094e+00 -2.710701e+00 -7.707341e-04 2.222411e-03 -1.968463e-03
Al -1.646608e+00 9.021694e-01 2.434286e+00 1.223248e-02 -6.246869e-03 -7.554785e-03
Al -1.646621e+00 9.136675e-01 7.444499e+00 1.184615e-02 -7.234487e-03 -5.752507e-03
Al -1.648932e+00 8.891396e-01 -2.715940e+00 1.190319e-02 -6.715186e-03 -5.233614e-03
Al -3.211401e+00 3.614690e+00 2.424643e+00 1.825352e-02 -2.313906e-03 2.925286e-03
Al -3.211266e+00 3.620049e+00 7.445031e+00 1.046126e-02 4.338149e-03 -4.141752e-03
Al -3.210036e+00 3.596850e+00 -2.715946e+00 9.872281e-03 4.771588e-03 -5.162796e-03
Al -3.934797e-02 -1.872882e+00 2.457611e+00 9.917251e-03 6.019744e-03 -8.470316e-03
Al -3.756888e-02 -1.861101e+00 7.445229e+00 9.781675e-03 6.710779e-03 -5.260854e-03
Al -3.942159e-02 -1.880176e+00 -2.713456e+00 1.057887e-02 5.612922e-03 -5.695296e-03
Al -4.627469e-03 1.809157e+00 4.936647e+00 -1.014019e-02 -6.498187e-03 -4.973753e-03
Al -5.923253e-03 1.789833e+00 -5.225176e+00 -9.927625e-03 -6.776948e-03 -4.368224e-03
Al -6.500597e-03 1.790662e+00 -2.336677e-01 -1.028897e-02 -6.847509e-03 2.686889e-02
Al 3.167056e+00 -3.671273e+00 4.936283e+00 -1.149421e-02 -5.772827e-03 -3.151081e-03
Al 3.166047e+00 -3.691999e+00 -5.224049e+00 -1.031876e-02 -4.409834e-03 -3.627542e-03
Al 3.167366e+00 -3.693263e+00 -2.021464e-01 -9.322488e-03 -2.622166e-03 2.058713e-02
Al 1.604321e+00 -9.613334e-01 4.940947e+00 -1.183903e-02 6.813335e-03 -4.857453e-03
Al 1.602823e+00 -9.850418e-01 -5.223841e+00 -1.182947e-02 7.251381e-03 -5.241098e-03
Al 1.600575e+00 -9.814168e-01 -1.999357e-01 -1.082946e-02 7.281250e-03 1.932335e-02
Al 3.124369e+00 1.810909e+00 4.935570e+00 1.959608e-04 -4.889480e-04 -2.647740e-03
Al 3.122219e+00 1.789505e+00 -5.225125e+00 3.016801e-04 -2.280593e-03 -2.968786e-03
Al 3.119614e+00 1.789636e+00 -2.042740e-01 1.011493e-03 -3.256506e-03 2.238483e-02
Al 6.295273e+00 -3.669968e+00 4.935929e+00 1.380385e-03 -1.529920e-03 -1.666774e-03
Al 6.292827e+00 -3.691622e+00 -5.224556e+00 4.687222e-04 -4.126488e-04 -1.905090e-03
Al 6.292209e+00 -3.692366e+00 -2.028286e-01 -7.542073e-04 1.781661e-03 2.266261e-02
Al 4.729889e+00 -9.631088e-01 4.934549e+00 -1.330971e-03 1.146130e-02 -3.111395e-03
Al 4.727590e+00 -9.835557e-01 -5.222788e+00 -1.423485e-03 1.158682e-02 -3.050254e-03
Al 4.728481e+00 -9.824410e-01 -1.984107e-01 -1.291697e-03 1.181985e-02 1.957488e-02
Al -3.210765e+00 1.812630e+00 4.935353e+00 2.228025e-03 3.624690e-04 -3.466333e-03
Al -3.211228e+00 1.792801e+00 -5.225053e+00 1.657939e-03 -1.534856e-03 -3.379998e-03
Al -3.208758e+00 1.791729e+00 -2.042397e-01 1.541412e-03 -2.403682e-03 2.167724e-02
Al -3.714741e-02 -3.665024e+00 4.939346e+00 1.991926e-03 -1.073629e-03 -6.540979e-03
Al -3.719820e-02 -3.690329e+00 -5.223481e+00 1.701124e-03 4.731696e-04 -2.526689e-03
Ga -3.834564e-02 -3.688972e+00 -2.128414e-01 1.887626e-03 5.590348e-04 3.492843e-02
Al -1.604268e+00 -9.581102e-01 4.941561e+00 2.467620e-04 1.206061e-02 -3.817268e-03
Ga -1.603666e+00 -9.817383e-01 -5.223102e+00 9.935502e-04 1.504210e-02 -5.033005e-03
Al -1.602764e+00 -9.783431e-01 -2.011481e-01 -6.455129e-04 1.237873e-02 2.090709e-02
N 1.561114e+00 9.059877e-01 4.344541e+00 -1.165587e-04 -1.203814e-02 3.903728e-03
N 1.557649e+00 8.864512e-01 -5.819861e+00 -4.863027e-04 -1.177906e-02 4.437054e-03
N 1.558679e+00 8.864555e-01 -8.075098e-01 -5.457354e-04 -1.148386e-02 4.856446e-03
N -6.349520e-03 3.616448e+00 4.342432e+00 -1.612624e-03 3.955701e-04 1.598014e-03
N -7.472130e-03 3.595154e+00 -5.819893e+00 -1.779621e-03 9.216721e-05 2.017406e-03
N -7.721247e-03 3.597843e+00 -8.082485e-01 -1.472967e-03 -2.698773e-04 2.980480e-03
N 3.165930e+00 -1.866722e+00 4.339016e+00 -1.936873e-03 1.608195e-03 6.703327e-04
N 3.165021e+00 -1.886092e+00 -5.819314e+00 -1.942177e-03 8.676138e-04 1.616571e-03
N 3.163863e+00 -1.885614e+00 -7.972983e-01 -2.460083e-03 1.008035e-03 1.356757e-03
N -4.774049e+00 9.078113e-01 4.337944e+00 1.009409e-03 -1.215838e-02 3.776895e-03
N -4.775094e+00 8.874898e-01 -5.819849e+00 1.209230e-03 -1.167830e-02 4.716830e-03
N -4.775322e+00 8.887799e-01 -7.987136e-01 1.045051e-03 -1.070787e-02 3.917757e-03
N -6.338158e+00 3.618260e+00 4.339095e+00 -3.709523e-03 -1.215480e-03 5.629008e-03
N -6.339919e+00 3.596383e+00 -5.819604e+00 -3.283910e-04 5.405438e-04 2.746299e-03
N -6.346603e+00 3.593121e+00 -8.053744e-01 -1.541169e-02 -8.200093e-03 -1.568836e-03
N -3.167337e+00 -1.865140e+00 4.339827e+00 -7.446911e-04 1.875535e-03 1.166205e-03
N -3.173936e+00 -1.887794e+00 -5.821240e+00 -1.723584e-02 -7.930297e-03 -4.773762e-03
N -3.168154e+00 -1.884480e+00 -7.963853e-01 -8.138435e-06 1.295262e-03 1.840230e-03
N -1.648339e+00 9.090405e-01 4.345102e+00 1.176702e-02 -7.251578e-03 6.352044e-03
N -1.647484e+00 8.963581e-01 -5.821405e+00 1.175384e-02 8.923232e-03 1.313386e-03
N -1.648329e+00 8.901949e-01 -8.058046e-01 1.243300e-02 -6.732493e-03 7.170799e-03
N -3.211388e+00 3.619618e+00 4.339399e+00 1.375309e-02 3.517144e-03 7.462639e-03
N -3.212078e+00 3.597938e+00 -5.819193e+00 1.068087e-02 5.065862e-03 4.450773e-03
N -3.205350e+00 3.594815e+00 -8.054780e-01 2.538703e-02 -3.446476e-03 7.058578e-04
N -3.872091e-02 -1.853676e+00 4.354900e+00 1.023327e-02 6.721906e-03 6.464128e-03
N -3.431714e-02 -1.886492e+00 -5.820691e+00 2.637301e-02 -3.233389e-03 -2.561802e-03
N -3.933390e-02 -1.874735e+00 -8.033648e-01 1.009777e-02 2.301004e-02 9.119020e-04
N -5.610286e-03 1.799594e+00 1.857163e+00 -1.032825e-02 -5.881233e-03 -2.516147e-02
N -4.675578e-03 1.810799e+00 6.849104e+00 -9.852932e-03 -6.070061e-03 4.074690e-03
N -6.011713e-03 1.788788e+00 -3.311861e+00 -1.004366e-02 -6.073259e-03 4.653118e-03
N 3.167653e+00 -3.677734e+00 1.824190e+00 -1.085950e-02 -5.334073e-03 -1.772862e-02
N 3.166797e+00 -3.670445e+00 6.849166e+00 -1.021700e-02 -4.594889e-03 4.981454e-03
N 3.166114e+00 -3.691647e+00 -3.311689e+00 -1.063315e-02 -4.802787e-03 4.419716e-03
N 1.599179e+00 -9.773403e-01 1.832457e+00 -1.271136e-02 6.959736e-03 -1.564761e-02
N 1.603786e+00 -9.615029e-01 6.851057e+00 -1.175334e-02 6.837025e-03 6.889574e-03
N 1.601749e+00 -9.839343e-01 -3.311057e+00 -1.216404e-02 6.736472e-03 6.495479e-03
N 3.122494e+00 1.805787e+00 1.825193e+00 -4.124583e-04 -2.844071e-03 -2.048202e-02
N 3.123930e+00 1.812273e+00 6.849050e+00 7.295413e-04 -1.636026e-03 2.360212e-03
N 3.122366e+00 1.789645e+00 -3.312257e+00 8.356669e-04 -1.161027e-03 2.038300e-03
N 6.294127e+00 -3.675881e+00 1.825471e+00 4.747015e-04 -7.024494e-04 -2.020332e-02
N 6.295288e+00 -3.669175e+00 6.848616e+00 1.493181e-04 -6.394540e-05 2.727238e-03
N 6.293641e+00 -3.690104e+00 -3.311529e+00 6.238966e-04 6.171169e-05 2.282631e-03
N 4.730323e+00 -9.662926e-01 1.823152e+00 -1.143347e-03 1.064749e-02 -1.608404e-02
N 4.729884e+00 -9.608864e-01 6.847931e+00 -1.117659e-03 1.163725e-02 4.103460e-03
N 4.728989e+00 -9.824943e-01 -3.308288e+00 -8.013715e-04 1.141843e-02 3.992048e-03
N -3.208457e+00 1.806496e+00 1.825955e+00 2.992467e-03 -2.277906e-03 -2.102439e-02
N -3.210332e+00 1.814106e+00 6.848596e+00 1.770395e-03 -1.333177e-03 1.944536e-03
N -3.210937e+00 1.791186e+00 -3.311610e+00 1.917117e-03 -1.072446e-03 1.586945e-03
N -3.996314e-02 -3.713646e+00 1.972250e+00 3.105033e-03 1.829145e-02 -3.981613e-02
N -3.717183e-02 -3.667769e+00 6.850176e+00 1.536467e-03 2.617512e-04 2.512483e-03
N -3.840568e-02 -3.689210e+00 -3.309359e+00 1.444248e-03 2.828586e-04 2.044171e-03
N -1.599673e+00 -9.745395e-01 1.834821e+00 1.100270e-03 1.171965e-02 -1.886307e-02
N -1.603441e+00 -9.584160e-01 6.852230e+00 1.959031e-04 1.149069e-02 3.926087e-03
N -1.604011e+00 -9.807427e-01 -3.303446e+00 2.900044e-04 1.176259e-02 2.454866e-02
