108
Energy=-1.993031e+06 Lattice="9.585083e+00 0.000000e+00 0.000000e+00 -4.794159e+00 8.300015e+00 0.000000e+00 -6.620519e-04 -1.571162e-03 1.552078e+01" Stress="2.455348e-05 -3.238117e-05 -2.311198e-04 -3.759826e-05 3.055877e-05 1.352962e-04 -2.256402e-04 1.494507e-04 -1.697710e-04" Properties=species:S:1:pos:R:3:forces:R:3 Config_type=AlGaN_super3_34_1_12.xyz
Al 1.574918e+00 8.825967e-01 2.437581e+00 5.014475e-04 -3.608923e-04 -3.553180e-05
Al 1.585157e+00 8.931979e-01 7.625128e+00 2.875467e-04 -2.074821e-04 -2.843903e-05
Ga 1.589029e+00 8.865060e-01 -2.739327e+00 4.904566e-04 -3.277776e-04 -1.065809e-04
Al -3.117279e-02 3.659553e+00 2.420804e+00 3.985138e-04 -5.012202e-04 1.472446e-04
Al -2.168529e-02 3.652999e+00 7.592234e+00 2.281096e-04 -2.108544e-04 -1.744312e-06
Ga -1.357400e-02 3.664392e+00 -2.697820e+00 4.154774e-04 -3.182627e-04 9.969363e-05
Al 3.173886e+00 -1.899167e+00 2.448903e+00 4.545952e-04 -2.983900e-04 -1.125243e-04
Ga 3.194986e+00 -1.882301e+00 7.583305e+00 2.984331e-04 -2.817606e-04 4.367442e-05
Ga 3.176769e+00 -1.882306e+00 -2.717113e+00 3.616031e-04 -2.912861e-04 6.982824e-06
Ga -4.817154e+00 8.823386e-01 2.449708e+00 4.944191e-04 -3.390680e-04 -1.323527e-05
Al -4.819484e+00 8.714361e-01 7.591946e+00 3.360468e-04 -1.812702e-04 1.982138e-05
Al -4.818218e+00 8.891697e-01 -2.726686e+00 3.666860e-04 -2.261446e-04 -6.439488e-07
Ga -6.428948e+00 3.644544e+00 2.433234e+00 2.881770e-04 -2.406109e-04 -2.592788e-04
Ga -6.429026e+00 3.636101e+00 7.623558e+00 2.890094e-04 -2.189466e-04 -2.475704e-05
Al -6.416321e+00 3.649959e+00 -2.736406e+00 2.934424e-04 -2.994586e-04 -8.644629e-05
Ga -3.229380e+00 -1.894344e+00 2.423835e+00 5.501260e-04 -4.702590e-04 9.964381e-05
Al -3.236628e+00 -1.880228e+00 7.602200e+00 2.357650e-04 -1.719168e-04 -1.700816e-05
Al -3.205359e+00 -1.887906e+00 -2.709447e+00 2.802913e-04 -2.485715e-04 1.096724e-04
Ga -1.624648e+00 8.949697e-01 2.432721e+00 4.732896e-04 -5.076218e-04 1.001188e-04
Ga -1.627675e+00 8.880598e-01 7.597859e+00 4.765171e-04 -2.801191e-04 -1.514090e-04
Ga -1.636610e+00 8.684287e-01 -2.707657e+00 5.933089e-04 -3.540816e-04 -8.593859e-05
Al -3.197624e+00 3.646422e+00 2.431221e+00 4.100226e-04 -2.981204e-04 -2.643188e-05
Ga -3.208054e+00 3.639991e+00 7.589734e+00 3.892798e-04 -2.855249e-04 2.922101e-05
Ga -3.227556e+00 3.647777e+00 -2.701963e+00 4.183001e-04 -3.325472e-04 1.950818e-05
Ga -1.439682e-02 -1.879560e+00 2.430578e+00 4.550053e-04 -3.806532e-04 -1.494860e-04
Ga -2.755709e-02 -1.877170e+00 7.611195e+00 3.964793e-04 -3.575235e-04 -9.397737e-05
Al -3.917982e-02 -1.887266e+00 -2.711769e+00 4.090794e-04 -2.977529e-04 -1.088778e-04
Ga -2.460466e-02 1.819884e+00 5.015910e+00 2.899676e-04 -1.560912e-04 -1.143267e-04
Ga -1.300693e-02 1.814784e+00 -5.333095e+00 1.248187e-04 -1.941044e-05 -3.850669e-05
Ga -3.346330e-02 1.814114e+00 -1.203186e-01 1.812284e-04 -5.479662e-05 -1.789042e-04
Al 3.178927e+00 -3.734781e+00 4.986437e+00 1.685278e-04 -2.335301e-05 -4.466514e-05
Ga 3.179726e+00 -3.732657e+00 -5.327111e+00 2.415324e-04 -7.023937e-05 1.794698e-05
Al 3.175994e+00 -3.735312e+00 -1.047058e-01 2.787671e-04 -1.197838e-05 1.391173e-04
Ga 1.594567e+00 -9.589988e-01 5.015216e+00 1.087930e-04 -1.028790e-04 -3.390232e-05
Ga 1.578422e+00 -9.520959e-01 -5.318146e+00 5.742655e-05 -4.869136e-06 -1.874519e-04
Ga 1.572857e+00 -9.710564e-01 -1.273656e-01 2.672378e-04 -6.148879e-05 -1.239217e-04
Ga 3.177135e+00 1.788125e+00 5.035430e+00 3.124899e-04 -5.589841e-05 -5.874797e-06
Al 3.180933e+00 1.798735e+00 -5.323896e+00 1.890263e-04 -1.100695e-04 -5.950542e-05
Ga 3.180147e+00 1.813752e+00 -1.484987e-01 3.712201e-04 -1.473808e-04 -9.756067e-06
Ga 6.340331e+00 -3.719392e+00 5.033972e+00 4.625086e-04 -1.908430e-04 5.354892e-05
Ga 6.363166e+00 -3.725961e+00 -5.318728e+00 2.535180e-04 -1.298333e-04 1.187859e-05
Al 6.366617e+00 -3.720224e+00 -1.579918e-01 3.692590e-04 -1.670467e-04 2.797319e-04
Al 4.770953e+00 -9.624450e-01 5.023142e+00 1.015050e-04 -1.346461e-04 -7.621178e-05
Ga 4.777049e+00 -9.445827e-01 -5.313521e+00 1.840079e-04 -1.325959e-04 2.074794e-06
Ga 4.783741e+00 -9.660608e-01 -1.538888e-01 1.960633e-04 -1.006452e-04 -6.709314e-05
Al -3.224691e+00 1.809977e+00 5.018829e+00 1.701235e-04 -7.051323e-05 4.538740e-05
Ga -3.241100e+00 1.802129e+00 -5.318471e+00 3.166767e-04 -1.147303e-04 2.624275e-05
Al -3.218497e+00 1.806251e+00 -1.407306e-01 3.054132e-04 -1.455210e-04 6.363961e-05
Ga -4.102719e-03 -3.741910e+00 5.007864e+00 2.806520e-04 -1.206820e-04 -4.568532e-05
Ga -2.841220e-02 -3.732726e+00 -5.288263e+00 2.333761e-04 -1.081903e-04 -2.757569e-05
Ga -2.574137e-02 -3.730169e+00 -1.528997e-01 4.871498e-04 -2.404208e-04 -1.646427e-04
Ga -1.642186e+00 -9.565051e-01 5.033562e+00 2.840905e-04 -1.819020e-04 -1.915962e-05
Ga -1.630759e+00 -9.674748e-01 -5.303875e+00 1.586076e-04 -6.182855e-05 -3.367918e-05
Al -1.629915e+00 -9.676831e-01 -1.626347e-01 2.160678e-04 -1.901932e-04 -6.719661e-05
N 1.575555e+00 8.854828e-01 4.343537e+00 -2.999406e-04 1.343289e-04 5.281721e-05
N 1.619778e+00 9.093095e-01 -5.971390e+00 -4.407263e-05 8.086699e-06 1.274350e-04
N 1.574195e+00 8.826864e-01 -7.714709e-01 -2.836101e-04 1.251519e-04 1.728217e-04
N -5.931130e-02 3.674105e+00 4.340562e+00 -2.814805e-04 3.173298e-04 5.557853e-05
N -2.348555e-02 3.654656e+00 -6.013780e+00 -2.225250e-04 9.128463e-05 -4.344931e-05
N -2.795880e-02 3.699605e+00 -7.166468e-01 -3.451987e-04 4.570691e-05 -1.890054e-04
N 3.219643e+00 -1.909837e+00 4.382655e+00 -1.895326e-04 7.196972e-05 8.837627e-05
N 3.180628e+00 -1.881174e+00 -5.956616e+00 -1.296065e-04 7.549281e-05 5.475746e-05
N 3.172669e+00 -1.939567e+00 -7.420269e-01 -2.648396e-04 6.347720e-05 7.349822e-05
N -4.772554e+00 8.573658e-01 4.430673e+00 -1.725800e-04 1.232472e-04 5.026193e-05
N -4.856909e+00 9.036535e-01 -6.000382e+00 -1.924077e-04 1.012251e-04 1.356962e-05
N -4.774400e+00 9.090576e-01 -8.066996e-01 -2.877173e-04 1.167502e-04 9.309611e-05
N -6.424618e+00 3.647980e+00 4.405491e+00 -4.282115e-04 1.175688e-04 -1.862447e-05
N -6.414109e+00 3.602507e+00 -5.915985e+00 -2.296159e-04 9.903327e-05 3.745230e-05
N -6.457068e+00 3.668932e+00 -8.122077e-01 -4.644704e-04 2.143596e-04 1.875209e-05
N -3.259815e+00 -1.863120e+00 4.398955e+00 -3.410547e-04 1.732952e-04 1.791024e-05
N -3.222933e+00 -1.880695e+00 -6.001556e+00 -2.481547e-04 7.270201e-05 4.144874e-06
N -3.176027e+00 -1.910100e+00 -7.871980e-01 -2.441045e-04 9.498476e-05 -4.050147e-05
N -1.663561e+00 9.073731e-01 4.415609e+00 -1.793214e-04 1.443850e-04 -4.189654e-05
N -1.626041e+00 8.847399e-01 -5.945268e+00 -1.083227e-04 -2.161388e-06 6.675256e-06
N -1.662155e+00 8.611355e-01 -7.223795e-01 -1.827311e-04 1.041527e-04 2.388465e-06
N -3.171696e+00 3.619197e+00 4.364059e+00 -1.838101e-04 -2.641564e-05 7.547746e-05
N -3.221111e+00 3.651649e+00 -5.954519e+00 -2.586745e-04 5.930755e-06 -5.621863e-06
N -3.168528e+00 3.626518e+00 -7.214441e-01 -3.445454e-04 8.319847e-05 -2.929739e-07
N -2.626466e-02 -1.878544e+00 4.399479e+00 -2.916460e-04 8.761625e-05 -3.411216e-05
N -2.458370e-02 -1.885181e+00 -5.939843e+00 -1.566112e-04 -3.437715e-05 1.083364e-04
N -5.958247e-02 -1.858618e+00 -7.937338e-01 -3.387746e-04 1.004049e-04 1.035414e-04
N 1.917180e-02 1.827791e+00 1.858895e+00 -2.982941e-04 4.251122e-04 -5.920567e-05
N 2.650667e-02 1.827755e+00 7.010557e+00 -3.423579e-04 3.439489e-04 6.909982e-05
N -2.737994e-02 1.810353e+00 -3.352936e+00 -3.990658e-04 4.083478e-04 1.430829e-05
N 3.172286e+00 -3.728182e+00 1.825143e+00 -3.305445e-04 4.942219e-04 -6.320188e-05
N 3.217224e+00 -3.756446e+00 6.915520e+00 -3.612446e-04 3.221328e-04 -2.080481e-05
N 3.175712e+00 -3.734234e+00 -3.360034e+00 -4.053458e-04 3.848257e-04 -4.920436e-05
N 1.623299e+00 -9.418154e-01 1.856171e+00 -4.883198e-04 3.078998e-04 6.013293e-05
N 1.579802e+00 -9.101524e-01 6.997308e+00 -4.015405e-04 3.373425e-04 4.071579e-05
N 1.533108e+00 -9.896970e-01 -3.337396e+00 -4.459352e-04 3.366099e-04 9.083130e-05
N 3.136640e+00 1.778075e+00 1.823892e+00 -3.097718e-04 2.747797e-04 5.250834e-05
N 3.171151e+00 1.752920e+00 7.014937e+00 -2.956530e-04 2.228148e-04 -2.565405e-06
N 3.220737e+00 1.825140e+00 -3.385550e+00 -3.178842e-04 3.282756e-04 9.930767e-05
N 6.329983e+00 -3.753380e+00 1.761781e+00 -5.936800e-04 4.938312e-04 1.371817e-05
N 6.325891e+00 -3.704123e+00 7.017999e+00 -2.296638e-04 2.021565e-04 1.756211e-05
N 6.404847e+00 -3.702083e+00 -3.326957e+00 -2.620823e-04 2.732679e-04 -1.083305e-04
N 4.726440e+00 -9.843077e-01 1.821226e+00 -4.597406e-04 3.266448e-04 -5.910722e-05
N 4.813966e+00 -9.378502e-01 6.950665e+00 -3.369060e-04 2.265473e-04 -2.072388e-05
N 4.819615e+00 -9.368727e-01 -3.314044e+00 -3.499043e-04 2.655086e-04 1.240774e-05
N -3.224324e+00 1.848618e+00 1.776367e+00 -4.877382e-04 3.540795e-04 -5.331535e-05
N -3.263244e+00 1.781426e+00 6.938041e+00 -3.843592e-04 2.632866e-04 5.864875e-05
N -3.260663e+00 1.782249e+00 -3.340564e+00 -4.336865e-04 2.702855e-04 -9.855822e-06
N 1.974813e-02 -3.757516e+00 1.829388e+00 -4.145811e-04 2.766326e-04 1.314926e-04
N -2.395992e-02 -3.733794e+00 6.977756e+00 -3.502019e-04 2.759215e-04 -2.714370e-07
N -6.004905e-02 -3.705695e+00 -3.299324e+00 -2.970432e-04 2.665598e-04 1.364441e-04
N -1.621439e+00 -9.643464e-01 1.752567e+00 -6.029172e-04 4.529530e-04 6.227497e-05
N -1.665296e+00 -9.874672e-01 7.002731e+00 -4.129084e-04 2.736687e-04 8.985464e-05
N -1.623056e+00 -1.011507e+00 -3.317046e+00 -4.765527e-04 2.797790e-04 -8.873390e-07
