108
Energy=-5.739908e+05 Lattice="9.412647e+00 0.000000e+00 0.000000e+00 -4.706109e+00 8.151915e+00 0.000000e+00 3.741300e-04 3.801427e-05 1.509582e+01" Stress="8.941848e-05 -6.682724e-06 -2.369132e-05 -4.355279e-06 7.499276e-05 1.066328e-05 -2.137288e-05 1.092327e-05 4.663295e-04" Properties=species:S:1:pos:R:3:forces:R:3 Config_type=AlGaN_super3_3_2_23.xyz
Al 1.546689e+00 8.677760e-01 2.372749e+00 8.624971e-06 -6.714704e-06 -9.541049e-05
Al 1.547463e+00 8.698210e-01 7.391985e+00 7.552423e-06 -1.333551e-05 1.728707e-05
Al 1.549953e+00 8.737162e-01 -2.667402e+00 -2.766852e-06 -1.806404e-05 2.916273e-05
Al -2.105925e-02 3.584968e+00 2.368343e+00 7.595228e-07 -1.152186e-05 -9.126670e-05
Al -2.335929e-02 3.584314e+00 7.396194e+00 5.450616e-06 -4.136169e-06 2.480489e-05
Al -2.202548e-02 3.583676e+00 -2.669556e+00 1.236644e-05 -6.448576e-06 2.908188e-05
Al 3.116712e+00 -1.850669e+00 2.372826e+00 -2.128311e-05 -1.959222e-06 -8.777953e-05
Al 3.117243e+00 -1.852513e+00 7.391959e+00 -1.082034e-06 3.470834e-06 3.269277e-05
Al 3.123388e+00 -1.849647e+00 -2.667061e+00 -2.276037e-05 -4.500508e-06 3.850860e-05
Al -4.728292e+00 8.667105e-01 2.367816e+00 1.795423e-06 -1.591623e-05 -1.089338e-04
Al -4.734688e+00 8.647143e-01 7.385132e+00 7.586931e-06 -9.498128e-06 2.116011e-05
Al -4.735880e+00 8.623494e-01 -2.655645e+00 1.077949e-05 1.951748e-06 3.720573e-05
Al -6.299903e+00 3.583774e+00 2.372723e+00 3.949935e-06 6.396884e-06 -9.482735e-05
Al -6.298203e+00 3.581952e+00 7.391580e+00 5.797344e-07 3.111385e-06 2.790137e-05
Al -6.301311e+00 3.577467e+00 -2.667716e+00 5.722807e-06 -6.544783e-06 4.711248e-05
Al -3.168490e+00 -1.856357e+00 2.386902e+00 3.961560e-05 1.020158e-05 -1.026655e-04
Al -3.161000e+00 -1.850591e+00 7.390860e+00 6.063447e-06 -2.736258e-06 1.151873e-05
Al -3.173179e+00 -1.852986e+00 -2.678179e+00 -1.445669e-05 -1.417930e-06 4.113947e-05
Al -1.591683e+00 8.767787e-01 2.386104e+00 3.245705e-05 -4.613709e-05 -9.742318e-05
Al -1.586391e+00 8.655252e-01 7.380805e+00 2.793528e-05 -1.031071e-05 -2.022660e-05
Al -1.588662e+00 8.756983e-01 -2.663074e+00 3.548931e-05 -1.687037e-05 3.283031e-06
Al -3.158467e+00 3.582677e+00 2.372191e+00 1.624416e-05 5.021502e-06 -1.160602e-04
Al -3.157894e+00 3.589434e+00 7.381491e+00 1.427760e-05 4.518166e-06 1.466371e-05
Al -3.156948e+00 3.584877e+00 -2.652666e+00 1.869664e-05 -4.904617e-06 4.863392e-05
Al -1.423720e-02 -1.854375e+00 2.383611e+00 5.818436e-06 3.399428e-06 -1.259668e-04
Al -2.316827e-02 -1.850744e+00 7.393080e+00 1.663113e-05 5.282449e-06 -2.154581e-06
Ga -1.771456e-02 -1.853162e+00 -2.672307e+00 1.404600e-04 4.029964e-05 -4.069794e-05
Al -1.968004e-02 1.776058e+00 4.883030e+00 6.294301e-06 -2.013582e-05 1.527387e-05
Al -1.318815e-02 1.772723e+00 -5.188439e+00 -1.264948e-06 -5.836595e-06 1.875967e-05
Al -1.657227e-02 1.780100e+00 -1.441564e-01 3.068991e-05 2.075704e-05 1.990570e-04
Al 3.117605e+00 -3.662010e+00 4.878945e+00 6.630192e-06 -1.036653e-05 1.439660e-05
Al 3.118390e+00 -3.654684e+00 -5.184741e+00 -5.767341e-06 -2.933141e-05 1.699116e-05
Al 3.115907e+00 -3.660620e+00 -1.468498e-01 8.448037e-06 -1.385817e-05 1.837217e-04
Al 1.548346e+00 -9.443886e-01 4.886014e+00 -5.059193e-06 9.552014e-06 -9.102287e-06
Al 1.552334e+00 -9.411182e-01 -5.200746e+00 -3.812121e-06 4.245175e-06 -8.344144e-06
Al 1.561801e+00 -9.403080e-01 -1.342127e-01 5.913401e-06 1.268210e-05 2.042501e-04
Al 3.114565e+00 1.773062e+00 4.878547e+00 1.893647e-05 -8.400165e-06 2.450298e-05
Al 3.106066e+00 1.772984e+00 -5.183534e+00 8.678214e-06 -9.297000e-06 2.338031e-05
Al 3.113309e+00 1.773110e+00 -1.463354e-01 1.072775e-05 -4.066147e-06 1.942799e-04
Al 6.251074e+00 -3.664459e+00 4.887850e+00 2.182051e-05 -1.181064e-05 1.906165e-05
Al 6.252900e+00 -3.663231e+00 -5.190976e+00 1.646886e-05 -8.784442e-06 1.554864e-05
Al 6.248379e+00 -3.668832e+00 -1.491273e-01 1.544190e-05 -1.023184e-05 2.186841e-04
Al 4.682329e+00 -9.450696e-01 4.883132e+00 1.510500e-05 2.398474e-06 1.684175e-05
Al 4.678127e+00 -9.516180e-01 -5.188219e+00 1.294515e-05 8.997848e-06 1.304651e-05
Al 4.675187e+00 -9.467520e-01 -1.443075e-01 7.915978e-06 3.514471e-07 1.936020e-04
Al -3.162005e+00 1.773602e+00 4.884959e+00 2.489204e-05 -1.858069e-05 2.877268e-05
Ga -3.161280e+00 1.773868e+00 -5.182442e+00 2.932283e-05 -5.128639e-06 6.184780e-05
Al -3.164007e+00 1.779642e+00 -1.477530e-01 -4.791521e-07 -5.635731e-06 2.527191e-04
Al -2.340185e-02 -3.663018e+00 4.882357e+00 9.777117e-06 -1.745850e-05 1.089764e-05
Al -2.677622e-02 -3.661888e+00 -5.198279e+00 1.079162e-05 -2.944000e-06 2.328146e-05
Al -2.025115e-02 -3.676374e+00 -1.300696e-01 2.672010e-05 -5.268644e-05 2.402036e-04
Al -1.591055e+00 -9.462886e-01 4.878653e+00 7.741944e-06 1.540757e-06 -1.333611e-05
Al -1.591981e+00 -9.487147e-01 -5.196113e+00 -9.317461e-06 3.144500e-05 9.469071e-06
Ga -1.598940e+00 -9.427176e-01 -1.261379e-01 6.512001e-05 6.979495e-05 4.182069e-04
N 1.546311e+00 8.665149e-01 4.287278e+00 -4.982575e-05 -4.268146e-05 -2.123635e-05
N 1.547119e+00 8.703909e-01 -5.789005e+00 -4.068115e-05 -4.784238e-05 -2.442419e-05
N 1.545906e+00 8.664177e-01 -7.451264e-01 -2.417388e-05 -3.615458e-05 1.106591e-04
N -2.060117e-02 3.584686e+00 4.283580e+00 -5.381834e-05 -5.921957e-06 -4.369679e-05
N -2.396411e-02 3.584260e+00 -5.780702e+00 -3.774652e-05 1.456925e-05 -2.641474e-05
N -2.276626e-02 3.584007e+00 -7.483247e-01 -4.748123e-05 -2.505601e-06 1.207977e-04
N 3.115375e+00 -1.850400e+00 4.287190e+00 -5.136708e-05 2.850706e-05 -3.830585e-05
N 3.117369e+00 -1.853345e+00 -5.789299e+00 -4.151990e-05 3.320900e-05 -1.663913e-05
N 3.114868e+00 -1.850647e+00 -7.467424e-01 -5.063294e-05 3.165158e-05 1.109456e-04
N -4.728556e+00 8.665285e-01 4.285181e+00 -9.808574e-07 -2.147711e-05 -1.696191e-05
N -4.772462e+00 8.433032e-01 -5.800926e+00 -1.017220e-04 -6.759259e-05 -5.104693e-05
N -4.732161e+00 8.641767e-01 -7.367024e-01 -7.998370e-06 -1.401506e-05 1.325751e-04
N -6.299400e+00 3.584583e+00 4.287451e+00 -1.090077e-05 1.508917e-05 -1.774596e-05
N -6.299655e+00 3.581061e+00 -5.787663e+00 -2.216761e-05 1.368468e-05 -1.798684e-05
N -6.296983e+00 3.584637e+00 -7.452615e-01 -7.630579e-06 -4.333604e-06 1.237343e-04
N -3.164493e+00 -1.854836e+00 4.297435e+00 -1.986998e-05 4.284287e-05 -2.767075e-05
N -3.162645e+00 -1.851485e+00 -5.786413e+00 -1.460055e-05 2.578508e-05 -1.618437e-05
N -3.202264e+00 -1.874484e+00 -7.654291e-01 -9.693302e-05 -6.997914e-06 6.365491e-05
N -1.591083e+00 8.722471e-01 4.298474e+00 3.628977e-05 -1.991997e-05 1.540661e-06
N -1.549542e+00 8.459892e-01 -5.805914e+00 1.306093e-04 -5.381496e-05 -6.302490e-05
N -1.587506e+00 9.131449e-01 -7.547483e-01 2.140136e-05 -3.638163e-05 1.059407e-04
N -3.159278e+00 3.583634e+00 4.288570e+00 3.228409e-05 1.524352e-05 -2.381133e-05
N -3.156400e+00 3.631753e+00 -5.807305e+00 2.386028e-05 1.154580e-04 -6.107572e-05
N -3.160468e+00 3.588596e+00 -7.367233e-01 2.742964e-06 1.483257e-05 1.229350e-04
N -1.742994e-02 -1.852427e+00 4.295722e+00 1.276954e-05 6.209896e-05 -4.840319e-06
N -2.246755e-02 -1.850529e+00 -5.782407e+00 1.458280e-05 4.726435e-05 -1.035248e-05
N 1.911370e-02 -1.875025e+00 -7.027069e-01 2.924978e-05 5.774090e-05 2.065141e-04
N -2.189683e-02 1.772983e+00 1.775005e+00 -4.420730e-05 -8.264920e-05 -2.240589e-04
N -1.893427e-02 1.776354e+00 6.795249e+00 -2.630190e-05 -5.234154e-05 -7.832218e-06
N -2.027865e-02 1.773147e+00 -3.268580e+00 -3.624681e-05 -5.084563e-05 -4.189760e-05
N 3.115752e+00 -3.661385e+00 1.773387e+00 -4.080427e-05 -2.607110e-07 -2.073840e-04
N 3.119141e+00 -3.661305e+00 6.791808e+00 -3.793978e-05 -1.032485e-05 -5.652999e-06
N 3.113796e+00 -3.661832e+00 -3.262079e+00 -1.809971e-05 6.011516e-06 -2.599427e-05
N 1.550268e+00 -9.428201e-01 1.781344e+00 -5.308841e-05 2.923015e-05 -2.229072e-04
N 1.547532e+00 -9.441691e-01 6.802777e+00 -4.227902e-05 3.108820e-05 4.167476e-06
N 1.591412e+00 -9.185148e-01 -3.289392e+00 -3.941743e-05 2.973883e-05 -2.746108e-05
N 3.114212e+00 1.773379e+00 1.773194e+00 -6.666231e-07 -3.667231e-05 -2.309123e-04
N 3.113551e+00 1.773960e+00 6.791181e+00 2.769817e-06 -3.289810e-05 -4.298339e-06
N 3.115383e+00 1.772399e+00 -3.262890e+00 6.147830e-06 -2.146889e-05 -2.965655e-05
N 6.252852e+00 -3.661207e+00 1.770784e+00 -2.755013e-05 1.514444e-05 -2.253364e-04
N 6.251486e+00 -3.663504e+00 6.802555e+00 -2.402020e-06 8.562682e-08 -1.991365e-05
N 6.253257e+00 -3.664629e+00 -3.270580e+00 -1.302120e-05 -2.972897e-06 -2.943107e-05
N 4.684712e+00 -9.463089e-01 1.774662e+00 -1.548898e-05 3.636802e-05 -2.170093e-04
N 4.683441e+00 -9.461986e-01 6.795093e+00 -1.492772e-05 3.635330e-05 -1.114580e-05
N 4.681211e+00 -9.423331e-01 -3.270233e+00 -7.538122e-06 3.280452e-05 -3.378106e-05
N -3.159261e+00 1.772659e+00 1.773413e+00 4.102255e-05 -3.491269e-05 -2.581232e-04
N -3.161778e+00 1.772709e+00 6.800543e+00 2.371225e-05 -3.090236e-05 -4.169418e-06
N -3.163656e+00 1.773578e+00 -3.207408e+00 2.017872e-05 -1.944336e-05 3.737908e-05
N -2.324926e-02 -3.665665e+00 1.784778e+00 3.475939e-05 3.473768e-05 -2.432050e-04
N -2.528254e-02 -3.661651e+00 6.796299e+00 1.577612e-05 8.632809e-06 -1.047073e-06
N -2.219755e-02 -3.713902e+00 -3.288027e+00 9.062138e-06 -1.006498e-04 -5.646936e-05
N -1.594227e+00 -9.439091e-01 1.847424e+00 1.287699e-05 9.135088e-05 -3.291113e-04
N -1.591470e+00 -9.476169e-01 6.794691e+00 2.143715e-05 5.104672e-05 1.103662e-05
N -1.633197e+00 -9.196163e-01 -3.282030e+00 -8.269188e-05 8.556251e-05 -4.042146e-05
