108
Energy=-1.306398e+06 Lattice="9.488815e+00 0.000000e+00 0.000000e+00 -4.747848e+00 8.214966e+00 0.000000e+00 -1.349121e-03 2.090060e-03 1.531582e+01" Stress="-3.550061e-03 -4.398945e-04 -7.589579e-06 -4.387610e-04 -4.124207e-03 1.415506e-04 -7.450232e-06 1.487862e-04 -2.807783e-03" Properties=species:S:1:pos:R:3:forces:R:3 Config_type=AlGaN_super3_19_2_8.xyz
Al 1.567604e+00 8.666509e-01 2.439268e+00 -1.591981e-03 3.809826e-03 -5.816745e-04
Al 1.557547e+00 8.640484e-01 7.478828e+00 2.056918e-04 9.761050e-04 4.889137e-04
Al 1.555835e+00 8.644327e-01 -2.710016e+00 4.035518e-04 3.956618e-04 7.918213e-04
Al -2.426039e-02 3.631622e+00 2.422219e+00 1.905921e-03 -1.079834e-02 1.317860e-03
Al -1.399939e-02 3.605423e+00 7.491887e+00 1.816814e-04 1.341557e-04 8.763697e-04
Al -2.526694e-02 3.602428e+00 -2.698569e+00 -1.664701e-04 6.755982e-04 7.482703e-04
Al 3.154543e+00 -1.860668e+00 2.405851e+00 -1.189173e-03 1.191041e-03 -1.995031e-03
Al 3.143500e+00 -1.850960e+00 7.536103e+00 -1.492753e-04 2.838835e-04 2.346602e-04
Ga 3.149605e+00 -1.862969e+00 -2.725802e+00 1.914456e-04 2.486676e-04 8.719867e-04
Al -4.773639e+00 8.711468e-01 2.409920e+00 -2.538780e-03 1.054958e-03 -9.994956e-04
Al -4.769378e+00 8.726029e-01 7.504015e+00 9.992963e-06 6.060594e-04 4.742032e-04
Al -4.776449e+00 8.674629e-01 -2.701490e+00 4.794696e-04 1.632836e-04 6.714855e-04
Ga -6.368704e+00 3.587649e+00 2.409856e+00 -2.382791e-04 -1.276738e-04 -2.876105e-04
Al -6.366304e+00 3.606922e+00 7.494284e+00 2.508495e-05 -5.837433e-04 1.403258e-04
Ga -6.357010e+00 3.598291e+00 -2.680198e+00 -2.547089e-04 4.189530e-05 8.509156e-04
Ga -3.192208e+00 -1.860036e+00 2.407151e+00 9.533660e-04 -3.584378e-04 -1.187173e-04
Al -3.175035e+00 -1.862153e+00 7.503733e+00 -7.041026e-04 3.854667e-04 7.438067e-04
Ga -3.180154e+00 -1.856011e+00 -2.702239e+00 -3.512242e-05 3.303622e-04 1.122725e-03
Al -1.615841e+00 8.714134e-01 2.423968e+00 5.655560e-03 5.103906e-03 -1.672166e-03
Al -1.611274e+00 8.692444e-01 7.492537e+00 -1.177470e-04 4.439893e-04 3.254499e-03
Ga -1.611086e+00 8.732343e-01 -2.709321e+00 1.416529e-04 -5.621004e-04 1.070950e-03
Ga -3.171697e+00 3.603529e+00 2.402970e+00 -1.421941e-03 -7.734545e-04 -4.699378e-04
Ga -3.180791e+00 3.606857e+00 7.521358e+00 -3.670630e-04 -9.374801e-04 5.804537e-04
Ga -3.179164e+00 3.611122e+00 -2.699474e+00 -3.385437e-04 -8.145963e-04 8.281390e-04
Ga -1.643012e-02 -1.842434e+00 2.426335e+00 -8.056903e-04 -6.142518e-04 8.200551e-04
Al -2.016122e-02 -1.833107e+00 7.503833e+00 -5.578208e-05 -9.588878e-04 9.042488e-05
Al -1.920816e-02 -1.844912e+00 -2.708499e+00 -1.143654e-03 -2.063650e-04 2.774229e-04
Al -2.297365e-02 1.775157e+00 4.958502e+00 5.169853e-04 1.032476e-03 -1.417238e-03
Ga -3.717859e-02 1.774179e+00 -5.279048e+00 6.900621e-04 5.908788e-04 1.255519e-03
Ga -2.624358e-02 1.792288e+00 -1.256029e-01 9.908489e-04 2.534687e-04 -2.030980e-03
Ga 3.156684e+00 -3.686436e+00 4.972654e+00 4.834911e-04 2.491733e-04 2.667225e-04
Al 3.151355e+00 -3.688020e+00 -5.275555e+00 3.013940e-04 2.396302e-04 9.222461e-04
Al 3.156597e+00 -3.696603e+00 -1.329820e-01 5.034308e-04 8.430506e-04 -2.640837e-03
Al 1.569798e+00 -9.380574e-01 4.972947e+00 -1.687620e-03 6.028983e-05 4.104216e-04
Al 1.559316e+00 -9.593793e-01 -5.269053e+00 3.568301e-04 1.289972e-03 -2.220098e-04
Ga 1.568351e+00 -9.573981e-01 -1.419006e-01 -4.050690e-04 3.955400e-04 -1.938368e-03
Al 3.132143e+00 1.776556e+00 4.977074e+00 -6.948960e-04 1.211027e-03 2.040650e-04
Ga 3.143442e+00 1.760994e+00 -5.274393e+00 7.060771e-04 -1.903716e-04 1.608549e-03
Al 3.147518e+00 1.774751e+00 -1.459952e-01 -5.308707e-04 4.198302e-05 -9.677431e-04
Al 6.301955e+00 -3.697934e+00 4.989155e+00 7.135020e-04 -6.935318e-04 -6.331552e-04
Ga 6.291260e+00 -3.680820e+00 -5.278566e+00 9.590421e-05 1.790150e-04 1.565316e-03
Al 6.295656e+00 -3.690039e+00 -1.451261e-01 2.654774e-04 -1.261013e-04 -2.492003e-03
Ga 4.722141e+00 -9.384950e-01 4.976057e+00 3.369663e-05 -9.278508e-05 1.072507e-03
Al 4.730922e+00 -9.432073e-01 -5.292292e+00 2.023142e-05 -2.828030e-04 8.619990e-04
Al 4.731570e+00 -9.410112e-01 -1.343131e-01 -3.068950e-04 -7.715427e-04 -2.185773e-03
Al -3.187855e+00 1.772620e+00 4.962816e+00 -4.029282e-04 -1.253733e-03 3.775842e-04
Al -3.193246e+00 1.773768e+00 -5.269143e+00 -3.780174e-04 -1.841679e-03 1.330797e-03
Al -3.206708e+00 1.777570e+00 -1.335000e-01 6.196643e-04 -2.352488e-04 -2.933639e-03
Ga -3.736862e-02 -3.684457e+00 4.991507e+00 -7.044637e-05 -8.591133e-05 5.312658e-04
Ga -1.629942e-02 -3.670373e+00 -5.273770e+00 -4.063405e-05 -3.230828e-05 1.527500e-03
Al -2.738217e-02 -3.686351e+00 -1.519051e-01 8.004430e-05 -9.239848e-05 -3.025886e-03
Al -1.602925e+00 -9.332981e-01 4.987277e+00 1.095463e-03 -5.827054e-04 -5.397647e-05
Al -1.602704e+00 -9.456208e-01 -5.285086e+00 -2.451017e-04 7.496994e-04 -5.228517e-04
Al -1.609697e+00 -9.519980e-01 -1.420329e-01 -6.044149e-05 -6.712571e-04 -2.049556e-03
N 1.563657e+00 8.727242e-01 4.369097e+00 -8.576781e-04 -2.481095e-04 -6.663894e-04
N 1.554772e+00 8.211785e-01 -5.928708e+00 -1.621741e-04 -1.235993e-04 3.208538e-04
N 1.591764e+00 8.918585e-01 -8.008098e-01 6.109034e-04 2.279959e-04 4.968852e-04
N 2.187553e-02 3.591304e+00 4.344308e+00 -1.049013e-03 -6.424852e-05 -1.033272e-03
N -6.220221e-02 3.625718e+00 -5.923839e+00 -1.719537e-05 -2.490148e-04 -1.212943e-03
N -2.690982e-02 3.651882e+00 -7.858557e-01 -3.963842e-04 2.239891e-04 1.264960e-03
N 3.106336e+00 -1.838404e+00 4.312781e+00 6.951363e-04 -6.219987e-04 -2.768247e-04
N 3.141601e+00 -1.862355e+00 -5.858199e+00 -5.882163e-04 -3.991416e-04 -4.018611e-04
N 3.191955e+00 -1.892747e+00 -7.418954e-01 -4.276274e-04 1.872637e-04 1.131768e-03
N -4.778464e+00 9.280449e-01 4.333409e+00 2.390569e-03 -1.698100e-03 -1.999347e-03
N -4.728162e+00 8.538281e-01 -5.908549e+00 -1.346098e-05 8.862887e-04 -3.968925e-04
N -4.769303e+00 8.683617e-01 -7.726183e-01 2.380342e-04 5.960582e-04 1.126019e-03
N -6.395518e+00 3.581841e+00 4.393309e+00 6.979120e-05 1.285668e-03 -1.276347e-03
N -6.352502e+00 3.603626e+00 -5.920715e+00 -3.145356e-04 3.967446e-04 -7.132254e-04
N -6.353129e+00 3.605439e+00 -6.991810e-01 -2.631001e-04 7.193454e-05 1.113184e-03
N -3.139086e+00 -1.889378e+00 4.395843e+00 -8.369972e-04 6.819293e-04 -1.544665e-03
N -3.176889e+00 -1.819367e+00 -5.898602e+00 -3.877114e-04 -4.656982e-04 -8.105278e-04
N -3.183714e+00 -1.861998e+00 -7.106602e-01 -1.484094e-04 1.977355e-04 8.247385e-04
N -1.612127e+00 8.730687e-01 4.355717e+00 1.875859e-04 -9.273160e-05 -1.810146e-03
N -1.656133e+00 8.542672e-01 -5.895040e+00 1.173354e-03 -4.684835e-04 -3.417723e-03
N -1.652774e+00 8.534563e-01 -7.304060e-01 5.814199e-05 2.385634e-04 -5.675615e-04
N -3.189493e+00 3.568455e+00 4.380187e+00 1.661728e-04 9.830586e-04 -2.275878e-03
N -3.145664e+00 3.582584e+00 -5.825185e+00 -1.778668e-04 1.237033e-03 -1.072140e-03
N -3.180726e+00 3.612036e+00 -7.034651e-01 -3.944382e-04 -5.538206e-04 1.142766e-03
N -2.113529e-02 -1.810879e+00 4.404041e+00 -4.818084e-04 1.333741e-04 -1.349062e-03
N -1.734299e-02 -1.804294e+00 -5.902450e+00 -4.908704e-04 -1.131360e-03 -7.877829e-04
N -6.231420e-02 -1.878092e+00 -7.873165e-01 -1.152611e-04 -1.365121e-04 1.145021e-03
N -8.377744e-03 1.791237e+00 1.853110e+00 -5.216718e-03 -1.160506e-03 6.998717e-03
N -2.929842e-02 1.780949e+00 6.888204e+00 2.722177e-04 3.317179e-04 -1.559709e-03
N 1.536568e-02 1.804927e+00 -3.296244e+00 -8.725384e-05 2.611392e-04 2.574481e-04
N 3.196593e+00 -3.672238e+00 1.786245e+00 -3.168189e-03 3.175863e-03 9.536688e-04
N 3.187940e+00 -3.656214e+00 6.938703e+00 -7.728760e-04 3.222895e-05 -8.854851e-04
N 3.189376e+00 -3.721235e+00 -3.364320e+00 -2.620303e-04 9.075809e-04 6.709291e-05
N 1.603496e+00 -9.262982e-01 1.832327e+00 2.615131e-04 -1.333619e-03 4.519078e-04
N 1.573497e+00 -9.570308e-01 6.893377e+00 4.187331e-05 -8.413847e-05 -1.474356e-03
N 1.521773e+00 -9.319091e-01 -3.347301e+00 1.618313e-04 -1.299093e-04 6.850589e-04
N 3.129109e+00 1.728814e+00 1.774134e+00 3.157470e-03 -8.744328e-04 1.569218e-03
N 3.141328e+00 1.781881e+00 6.896825e+00 -3.402136e-04 -2.933004e-04 -1.236427e-03
N 3.135202e+00 1.734558e+00 -3.294217e+00 7.276860e-04 2.430793e-04 -3.672579e-04
N 6.255361e+00 -3.718919e+00 1.760734e+00 2.555807e-03 3.876603e-03 7.197628e-04
N 6.300702e+00 -3.687082e+00 6.903478e+00 4.040245e-04 -1.371347e-04 -8.853137e-04
N 6.263225e+00 -3.714388e+00 -3.307176e+00 8.099811e-04 2.424183e-04 1.645184e-04
N 4.684685e+00 -9.226624e-01 1.781986e+00 4.463679e-04 -2.760578e-04 2.086009e-03
N 4.721864e+00 -9.501953e-01 6.958051e+00 -4.762713e-04 -7.637479e-04 -1.748428e-03
N 4.731881e+00 -9.007865e-01 -3.375354e+00 -5.860587e-04 -8.172874e-04 4.617639e-04
N -3.191686e+00 1.732520e+00 1.778439e+00 -2.753035e-04 2.948782e-04 2.865407e-03
N -3.192427e+00 1.740157e+00 6.872652e+00 8.311898e-04 -1.386048e-05 -9.712936e-04
N -3.238724e+00 1.761998e+00 -3.356016e+00 5.404868e-04 3.538730e-04 5.964033e-04
N -2.800163e-02 -3.684399e+00 1.752394e+00 9.250371e-04 5.074166e-04 3.083177e-03
N -6.135800e-02 -3.659126e+00 6.960205e+00 3.283250e-04 2.941819e-04 -1.130366e-03
N -2.741878e-02 -3.639080e+00 -3.297671e+00 5.811773e-04 -7.061459e-04 3.120696e-04
N -1.599918e+00 -8.975285e-01 1.762578e+00 -3.820215e-04 -2.823705e-03 2.378244e-03
N -1.603297e+00 -9.432165e-01 6.900709e+00 -1.004551e-04 -5.533771e-04 -9.965764e-04
N -1.561119e+00 -9.711389e-01 -3.376203e+00 -5.298222e-04 -9.419309e-04 1.700009e-03
