108
Energy=-1.443725e+06 Lattice="9.523562e+00 0.000000e+00 0.000000e+00 -4.767637e+00 8.239686e+00 0.000000e+00 -1.241137e-02 7.992120e-03 1.536922e+01" Stress="1.211673e-03 2.371608e-05 -5.360183e-04 2.383615e-05 7.111890e-04 3.708181e-04 -5.357541e-04 3.870217e-04 1.670173e-03" Properties=species:S:1:pos:R:3:forces:R:3 Config_type=AlGaN_super3_22_0_11.xyz
Al 1.568503e+00 8.819852e-01 2.441142e+00 -2.002927e-03 -2.018575e-04 -9.900298e-04
Al 1.545552e+00 8.755429e-01 7.511521e+00 4.301403e-04 4.602910e-06 -6.495988e-05
Al 1.568290e+00 8.797523e-01 -2.717333e+00 -1.026750e-05 -9.099710e-04 2.294176e-04
Al -2.167078e-02 3.617983e+00 2.431137e+00 -1.849044e-03 -1.076587e-03 -8.670424e-04
Al -4.756563e-02 3.606330e+00 7.513188e+00 4.184503e-04 -4.127771e-04 3.545500e-04
Al -4.354209e-03 3.614347e+00 -2.698190e+00 -3.353985e-04 1.083113e-04 3.935361e-05
Al 3.154018e+00 -1.861316e+00 2.433443e+00 1.694075e-03 -3.943665e-03 -4.366416e-04
Ga 3.129730e+00 -1.865054e+00 7.544608e+00 2.428655e-04 -1.178874e-04 9.849571e-04
Ga 3.163071e+00 -1.855511e+00 -2.730285e+00 -2.931943e-04 1.132022e-04 -1.538584e-04
Ga -4.805102e+00 8.757979e-01 2.414059e+00 5.332371e-04 5.627374e-05 7.626963e-04
Al -4.789225e+00 8.905540e-01 7.538423e+00 3.983094e-04 4.488606e-04 5.032598e-04
Al -4.789264e+00 8.694205e-01 -2.714940e+00 4.122053e-04 -3.513371e-05 8.103354e-04
Ga -6.388897e+00 3.609353e+00 2.392787e+00 1.426559e-04 4.324079e-04 1.415284e-03
Ga -6.374966e+00 3.614666e+00 7.553847e+00 5.316778e-05 8.721315e-06 7.157996e-04
Al -6.373810e+00 3.624639e+00 -2.705363e+00 3.806483e-04 -6.113335e-05 -6.018510e-05
Ga -3.197685e+00 -1.865946e+00 2.389558e+00 -2.990024e-06 -4.035455e-04 1.143074e-03
Ga -3.189945e+00 -1.851327e+00 7.556645e+00 3.638980e-04 -1.731651e-04 5.982153e-04
Al -3.185520e+00 -1.871383e+00 -2.708188e+00 9.398240e-05 6.446790e-04 -3.855227e-04
Al -1.602887e+00 8.745367e-01 2.439260e+00 7.632286e-04 3.241574e-05 2.613618e-04
Al -1.620059e+00 8.871242e-01 7.526515e+00 6.959372e-04 -1.014272e-03 -8.777660e-04
Ga -1.608564e+00 8.641356e-01 -2.729565e+00 4.756325e-04 2.973039e-04 5.065708e-04
Ga -3.186637e+00 3.624506e+00 2.434691e+00 2.827204e-04 2.987752e-04 3.205299e-04
Al -3.199211e+00 3.615987e+00 7.521899e+00 -1.280960e-03 -1.560191e-03 5.948064e-03
Ga -3.217382e+00 3.621453e+00 -2.719400e+00 4.361440e-04 -4.031762e-04 -1.311903e-04
Ga -1.966227e-02 -1.850773e+00 2.417937e+00 -1.544968e-04 -5.467370e-04 1.732419e-03
Al -2.242271e-02 -1.842878e+00 7.544935e+00 3.449335e-04 -1.282852e-03 1.135717e-03
Al -3.245508e-02 -1.870500e+00 -2.719878e+00 1.928432e-03 -6.667001e-05 -1.688044e-03
Al -3.606212e-02 1.781561e+00 4.968227e+00 -7.867458e-06 5.658857e-04 8.226104e-04
Ga -2.304971e-02 1.772326e+00 -5.294759e+00 -1.677784e-04 3.180010e-04 1.182732e-03
Ga -7.783689e-03 1.788469e+00 -1.254024e-01 -8.063923e-04 3.473006e-04 -3.224890e-04
Al 3.148097e+00 -3.709744e+00 4.981195e+00 4.459045e-04 7.570182e-04 -3.407156e-06
Ga 3.151827e+00 -3.709486e+00 -5.279434e+00 -1.274559e-03 -4.577252e-04 -2.630547e-04
Ga 3.173990e+00 -3.695201e+00 -1.329947e-01 -5.362532e-04 1.018139e-04 -8.344485e-04
Al 1.558016e+00 -9.424390e-01 4.976107e+00 -2.395203e-04 -4.482968e-04 5.012553e-04
Al 1.557572e+00 -9.558416e-01 -5.273394e+00 -1.257935e-03 -3.629567e-04 -8.257537e-05
Ga 1.570928e+00 -9.496400e-01 -1.464022e-01 -1.071505e-03 4.681368e-05 6.396818e-04
Al 3.136034e+00 1.779709e+00 4.995630e+00 5.666497e-05 2.284488e-04 6.793769e-04
Ga 3.165750e+00 1.771097e+00 -5.263851e+00 -1.589400e-04 7.610698e-05 9.365744e-04
Al 3.149294e+00 1.792962e+00 -1.869260e-01 -3.235273e-06 2.202897e-04 8.622043e-04
Ga 6.313202e+00 -3.710823e+00 4.981801e+00 -2.260963e-05 4.839304e-04 4.946763e-05
Ga 6.332317e+00 -3.693638e+00 -5.246214e+00 -3.101923e-04 -2.956008e-04 9.252600e-04
Al 6.339461e+00 -3.697254e+00 -1.810825e-01 -7.352538e-06 -4.673084e-05 9.942843e-04
Ga 4.729155e+00 -9.448468e-01 4.981462e+00 -7.054968e-04 -4.480891e-04 4.484569e-04
Al 4.758763e+00 -9.390178e-01 -5.264865e+00 -7.461167e-04 -7.933076e-05 -1.098412e-04
Al 4.751865e+00 -9.521751e-01 -1.628893e-01 -2.356388e-04 1.186358e-04 1.204320e-03
Al -3.195387e+00 1.783025e+00 4.995126e+00 1.850363e-04 1.262855e-03 7.928025e-05
Al -3.204229e+00 1.776142e+00 -5.292575e+00 2.168847e-04 2.554964e-03 -2.305195e-03
Ga -3.211489e+00 1.781020e+00 -1.433783e-01 5.177211e-05 -1.413776e-04 -1.353736e-03
Ga -1.648675e-02 -3.697090e+00 5.007122e+00 -2.797218e-04 6.442202e-04 2.639814e-05
Al -7.058390e-03 -3.682522e+00 -5.275276e+00 -7.400159e-04 1.681384e-05 -4.154285e-04
Al -3.887920e-02 -3.693355e+00 -1.674154e-01 -3.406972e-04 -1.042423e-04 -5.704791e-05
Al -1.600476e+00 -9.345884e-01 4.991064e+00 -5.166491e-04 1.551749e-04 1.327254e-03
Al -1.596299e+00 -9.582789e-01 -5.264438e+00 6.947366e-04 -2.430383e-04 -3.976525e-03
Al -1.611252e+00 -9.650694e-01 -1.670531e-01 -7.103555e-04 1.652971e-05 7.623454e-04
N 1.561859e+00 8.816255e-01 4.370988e+00 2.266727e-04 -7.504401e-06 -4.179623e-04
N 1.570536e+00 8.257190e-01 -5.942112e+00 6.784013e-04 8.232173e-05 5.691493e-04
N 1.594297e+00 8.952614e-01 -8.099258e-01 1.319978e-03 9.804684e-05 3.616984e-04
N -7.149294e-02 3.598617e+00 4.348948e+00 -2.889366e-04 -4.859357e-04 1.889078e-04
N -1.923194e-02 3.617541e+00 -5.950610e+00 4.911034e-04 3.745418e-05 -6.137817e-04
N 1.336487e-02 3.635912e+00 -7.931951e-01 9.951702e-04 7.047014e-05 6.859797e-04
N 3.107018e+00 -1.893123e+00 4.358553e+00 8.709977e-05 -2.387855e-04 -8.356660e-05
N 3.157825e+00 -1.823827e+00 -5.839654e+00 5.204271e-04 9.089185e-04 2.284714e-04
N 3.193875e+00 -1.845480e+00 -7.622540e-01 7.969069e-04 3.987204e-04 -4.162108e-05
N -4.796245e+00 9.311198e-01 4.394209e+00 4.307996e-04 -6.836782e-05 -5.207093e-04
N -4.746670e+00 8.523272e-01 -5.912770e+00 7.615719e-04 -2.935352e-04 -1.097483e-03
N -4.821718e+00 8.515496e-01 -7.901404e-01 -3.877446e-04 -2.468018e-04 -8.708593e-04
N -6.377753e+00 3.575383e+00 4.378149e+00 4.442592e-04 -4.271792e-04 -8.237104e-04
N -6.332633e+00 3.640854e+00 -5.847424e+00 -5.640731e-05 -7.836508e-05 -6.494592e-04
N -6.368127e+00 3.624653e+00 -7.739363e-01 -5.007832e-04 -2.801782e-04 -2.678612e-04
N -3.156907e+00 -1.843858e+00 4.371798e+00 9.250744e-04 2.887098e-04 -6.068595e-04
N -3.186166e+00 -1.825807e+00 -5.839145e+00 -2.001258e-04 1.056845e-04 -3.299448e-04
N -3.192157e+00 -1.864240e+00 -7.703643e-01 2.897065e-05 -1.248474e-04 -8.329802e-04
N -1.621907e+00 8.739658e-01 4.372299e+00 6.617386e-04 -1.823093e-04 -8.459164e-04
N -1.646416e+00 8.432429e-01 -5.920316e+00 -1.618686e-03 1.311508e-03 2.513276e-03
N -1.609323e+00 8.363580e-01 -7.587491e-01 6.733881e-04 -8.799938e-04 -7.051245e-04
N -3.170739e+00 3.598693e+00 4.410554e+00 6.157716e-04 -1.072144e-03 1.281079e-04
N -3.244458e+00 3.604892e+00 -5.905312e+00 2.466071e-03 -4.214999e-03 -1.896141e-03
N -3.237158e+00 3.649747e+00 -7.454672e-01 -3.267674e-04 -3.563889e-04 -2.377924e-04
N -3.049084e-02 -1.823947e+00 4.396797e+00 4.228068e-04 5.365773e-04 -6.797721e-04
N -1.549589e-02 -1.861239e+00 -5.891416e+00 -6.780467e-05 -5.194243e-04 -4.921396e-04
N -5.956626e-02 -1.887520e+00 -7.964646e-01 6.816565e-04 -3.697395e-05 1.209880e-03
N -2.190823e-02 1.784007e+00 1.868533e+00 8.367015e-04 1.223408e-03 1.111794e-03
N -3.427821e-02 1.788888e+00 6.905060e+00 -3.189012e-04 3.068984e-04 -4.853096e-04
N 2.016318e-02 1.812140e+00 -3.311988e+00 1.565513e-05 5.525782e-04 -6.649344e-04
N 3.201214e+00 -3.677908e+00 1.842641e+00 2.212385e-04 1.274142e-03 1.550514e-03
N 3.143031e+00 -3.744373e+00 6.908305e+00 1.698004e-03 1.179810e-03 -1.581910e-03
N 3.200857e+00 -3.734383e+00 -3.310985e+00 2.094207e-04 6.687222e-05 1.810569e-04
N 1.613869e+00 -9.295022e-01 1.845781e+00 -1.873777e-03 2.150702e-03 -2.062853e-03
N 1.522660e+00 -9.297576e-01 6.896630e+00 -1.048817e-03 1.256480e-04 -1.086867e-03
N 1.520938e+00 -9.288052e-01 -3.348501e+00 -3.556129e-04 -2.967555e-04 -1.499142e-04
N 3.101174e+00 1.764247e+00 1.739121e+00 2.641468e-04 -3.178478e-04 -6.947622e-04
N 3.142272e+00 1.747177e+00 6.914130e+00 -1.730521e-04 -5.234050e-04 -5.926539e-04
N 3.154267e+00 1.787805e+00 -3.274829e+00 -2.957310e-06 4.067228e-04 -4.927163e-05
N 6.284125e+00 -3.726460e+00 1.750487e+00 1.674739e-04 1.543627e-04 -1.215098e-03
N 6.282585e+00 -3.719202e+00 6.948449e+00 -4.824418e-05 1.760843e-04 -5.650177e-04
N 6.329369e+00 -3.704411e+00 -3.259987e+00 6.345014e-04 6.244762e-04 2.717937e-04
N 4.697209e+00 -9.759208e-01 1.763246e+00 -1.250749e-04 4.159424e-04 -8.832091e-04
N 4.732428e+00 -9.081968e-01 6.946563e+00 -4.594257e-04 3.957700e-05 -5.027159e-04
N 4.792961e+00 -9.288616e-01 -3.345401e+00 4.135057e-04 -1.809017e-05 -3.284863e-04
N -3.159544e+00 1.764541e+00 1.823808e+00 -1.909572e-04 -1.121695e-04 1.627819e-03
N -3.206295e+00 1.790501e+00 6.922616e+00 1.537470e-04 2.352720e-04 -1.372691e-05
N -3.240463e+00 1.764582e+00 -3.375088e+00 5.664790e-05 -7.283693e-05 4.265166e-06
N -1.874832e-02 -3.697035e+00 1.751330e+00 -3.324254e-04 5.268292e-05 -9.704922e-04
N 1.759621e-02 -3.670886e+00 6.979659e+00 -1.390906e-03 2.029127e-03 -1.402300e-03
N -6.078257e-02 -3.674270e+00 -3.349449e+00 -1.927427e-04 2.736347e-04 -3.532653e-04
N -1.603281e+00 -9.037383e-01 1.753455e+00 -6.774439e-04 1.601737e-04 -1.103776e-03
N -1.572037e+00 -9.250305e-01 6.911736e+00 -9.178523e-05 1.560358e-04 -9.998032e-04
N -1.598174e+00 -1.005876e+00 -3.359677e+00 -2.843086e-03 -1.110715e-04 3.563220e-03
