108
Energy=-711317.136064 Lattice="9.430311 0.000000 0.000000 -4.721478 8.164261 0.000000 -0.004757 -0.005501 15.142620" Stress="0.000002 -0.000002 -0.000001 -0.000002 0.000002 -0.000001 -0.000001 -0.000001 -0.000001" Properties=species:S:1:pos:R:3:forces:R:3
Al 1.544506 0.867314 2.366645 0.000548 -0.000162 0.000094
Al 1.551018 0.877150 7.408074 -0.000125 -0.000592 -0.000311
Al 1.550621 0.879497 -2.654253 0.000163 -0.000024 -0.000060
Al -0.015794 3.581522 2.367995 0.001008 -0.000188 0.000221
Al -0.021236 3.580147 7.429896 0.000054 0.000001 -0.000100
Al -0.025299 3.583295 -2.674499 -0.000022 -0.000054 0.000128
Al 3.126025 -1.844872 2.361573 0.000491 0.000394 0.000362
Al 3.132896 -1.852218 7.423359 -0.000250 -0.000001 -0.000631
Al 3.126289 -1.854559 -2.656434 0.000154 -0.000217 -0.000292
Al -4.743789 0.859009 2.377133 0.000282 0.000157 -0.000123
Al -4.744293 0.864836 7.417184 0.000192 0.000102 -0.000325
Al -4.745247 0.877561 -2.675250 0.000388 -0.000037 0.000000
Al -6.324209 3.586573 2.374138 0.000801 0.000043 -0.000244
Al -6.324000 3.575414 7.408526 -0.000111 0.000026 0.000011
Al -6.315815 3.578378 -2.656304 -0.000162 0.000103 -0.000170
Al -3.168496 -1.858001 2.369598 -0.000001 0.000232 -0.000423
Al -3.175211 -1.855658 7.416679 0.000308 -0.000149 -0.000115
Ga -3.162098 -1.851258 -2.660595 0.000116 -0.000081 -0.000142
Al -1.594728 0.863692 2.372766 0.000505 -0.000081 0.000272
Al -1.603078 0.873052 7.418306 0.000580 -0.000381 0.000045
Al -1.590494 0.878884 -2.670513 0.000466 -0.000192 0.000100
Ga -3.171771 3.582072 2.361690 -0.000139 0.000056 0.000260
Al -3.170618 3.573028 7.424564 0.000258 0.000117 -0.000445
Al -3.160394 3.589220 -2.656302 0.000294 -0.000277 -0.000591
Al -0.024380 -1.847353 2.374908 0.000220 -0.001177 -0.000313
Ga -0.028309 -1.852686 7.403292 0.000527 0.000225 -0.000158
Al -0.018614 -1.843289 -2.643475 0.000067 -0.000166 -0.000728
Al -0.022769 1.763975 4.891628 -0.000317 0.000212 0.000128
Al -0.025396 1.781468 -5.195506 -0.000210 0.000233 0.000038
Al -0.024970 1.776613 -0.151066 -0.000190 0.000384 -0.000037
Ga 3.130629 -3.668271 4.907542 -0.000408 0.000207 -0.000222
Al 3.139766 -3.674201 -5.196064 -0.000242 0.000421 -0.000462
Al 3.134009 -3.665299 -0.154037 0.000186 0.000147 -0.000219
Al 1.552353 -0.939095 4.882154 -0.000386 0.000044 -0.000441
Ga 1.566499 -0.932477 -5.173573 -0.000484 0.000448 -0.000190
Al 1.553871 -0.943689 -0.150132 -0.000520 0.000128 -0.000214
Al 3.116745 1.771735 4.888231 -0.000016 -0.000032 -0.000421
Al 3.118803 1.778852 -5.198070 0.000077 -0.000115 0.000205
Al 3.121889 1.776942 -0.143175 -0.000243 -0.000077 -0.000189
Al 6.271614 -3.670283 4.892580 -0.000017 0.000376 -0.000118
Al 6.262937 -3.670195 -5.205829 -0.000046 0.000224 -0.000201
Al 6.267097 -3.673503 -0.134929 -0.000165 -0.000253 -0.000306
Al 4.696714 -0.942517 4.893726 -0.000198 -0.000066 -0.000241
Al 4.702133 -0.940449 -5.204667 -0.000274 0.000036 -0.000165
Al 4.692269 -0.937321 -0.136078 -0.000319 -0.000220 -0.000336
Al -3.175181 1.755886 4.908874 0.000149 0.000661 -0.000467
Al -3.163277 1.770008 -5.195844 -0.000253 0.000078 -0.000200
Al -3.168033 1.770043 -0.161397 -0.000148 -0.000305 -0.000409
Al -0.039268 -3.671429 4.897981 0.001887 -0.000858 -0.001171
Ga -0.024617 -3.678788 -5.175103 -0.000063 -0.000050 -0.000368
Al -0.026431 -3.661982 -0.159326 -0.000046 -0.000183 -0.000476
Al -1.603172 -0.943598 4.878448 -0.000105 -0.000004 -0.000366
Al -1.607507 -0.928511 -5.192290 0.000042 -0.000065 -0.000260
Al -1.586755 -0.936553 -0.128210 -0.000408 -0.000147 -0.000172
N 1.544418 0.868176 4.285030 0.000271 0.000154 0.000102
N 1.548146 0.918843 -5.818789 0.000340 -0.000237 -0.000177
N 1.549107 0.875420 -0.738406 0.000437 -0.000124 -0.000030
N 0.014383 3.561684 4.277700 0.000309 -0.000453 0.000119
N -0.021533 3.587345 -5.796168 0.000106 -0.000234 0.000250
N -0.021127 3.589958 -0.754485 0.000047 -0.000209 -0.000443
N 3.123740 -1.810235 4.270668 0.000238 0.000000 0.000331
N 3.164514 -1.872769 -5.810181 0.000229 -0.000235 0.000248
N 3.129594 -1.850564 -0.743029 0.000100 -0.000250 0.000328
N -4.741573 0.865338 4.295223 0.000217 0.000071 0.000203
N -4.740181 0.873403 -5.801452 0.000337 0.000113 0.000166
N -4.742865 0.869524 -0.757450 0.000152 0.000081 -0.000022
N -6.317990 3.586178 4.290948 0.000091 -0.000124 0.000146
N -6.350661 3.567326 -5.822295 -0.000073 0.000062 0.000016
N -6.318956 3.587082 -0.744505 0.000028 -0.000042 0.000123
N -3.171058 -1.858168 4.288013 0.000129 -0.000187 0.000327
N -3.161794 -1.850927 -5.799175 0.000101 -0.000086 0.000126
N -3.161929 -1.850767 -0.684784 0.000099 -0.000001 0.000009
N -1.600910 0.872390 4.290373 0.000504 -0.000384 0.000050
N -1.594881 0.874458 -5.801458 0.000255 -0.000161 0.000083
N -1.594268 0.869738 -0.753341 0.000362 -0.000283 -0.000201
N -3.207652 3.558675 4.326629 -0.001881 0.000707 0.001379
N -3.130276 3.568276 -5.804916 0.000199 -0.000354 0.000345
N -3.164648 3.592376 -0.739654 0.000115 -0.000414 0.000268
N -0.022964 -1.854878 4.298861 0.000051 -0.000407 0.000096
N -0.058030 -1.825334 -5.778652 0.000059 -0.000432 0.000262
N -0.025179 -1.842874 -0.735440 0.000182 -0.000406 0.000341
N -0.026483 1.771047 1.767653 -0.000397 0.000143 0.000194
N -0.027392 1.770629 6.813498 -0.000328 0.000414 0.000116
N -0.019779 1.774457 -3.272342 -0.000200 0.000184 -0.000171
N 3.172630 -3.646835 1.758862 -0.001599 0.000089 -0.000645
N 3.126031 -3.672336 6.878213 -0.000157 0.000105 0.000446
N 3.127455 -3.666300 -3.270209 -0.000219 0.000312 0.000249
N 1.549174 -0.948281 1.771163 -0.000293 0.000155 -0.000095
N 1.593261 -0.925819 6.792627 0.000623 0.000614 0.001242
N 1.557036 -0.941777 -3.200400 -0.000295 0.000241 0.000377
N 3.120599 1.772830 1.776921 -0.000119 0.000020 0.000278
N 3.119517 1.771077 6.805264 -0.000076 -0.000364 0.000140
N 3.118490 1.777776 -3.275130 -0.000142 -0.000044 -0.000127
N 6.265418 -3.673727 1.777019 0.000526 0.000297 0.000225
N 6.262701 -3.669374 6.815276 -0.000142 -0.000055 0.000170
N 6.270775 -3.712578 -3.292250 0.000129 -0.000002 0.000156
N 4.693543 -0.944625 1.774965 -0.000097 0.000362 0.000444
N 4.694148 -0.948265 6.814671 -0.000505 0.000170 0.000218
N 4.656799 -0.920928 -3.291795 -0.000374 0.000111 0.000129
N -3.168763 1.719153 1.746248 -0.000548 0.000171 0.000427
N -3.171450 1.766392 6.823569 -0.000328 0.000141 0.000201
N -3.166171 1.777722 -3.271109 -0.000336 0.000114 0.000243
N -0.063621 -3.647707 1.750963 -0.000683 0.001448 0.000862
N -0.024540 -3.720297 6.805772 0.000024 -0.000272 0.000062
N -0.019714 -3.666805 -3.199424 0.000000 0.000111 0.000799
N -1.592144 -0.945747 1.787573 -0.000108 0.000036 0.000297
N -1.641608 -0.922345 6.789506 -0.000708 0.000354 0.000096
N -1.551093 -0.917993 -3.283516 -0.000545 0.000078 0.000179
