108
Energy=-2.771215e+06 Lattice="9.693143e+00 0.000000e+00 0.000000e+00 -4.849754e+00 8.388388e+00 0.000000e+00 2.716759e-02 1.283367e-02 1.571881e+01" Stress="2.074061e-04 2.909950e-05 1.440492e-03 2.544999e-05 5.485818e-04 6.925781e-04 1.458624e-03 7.052990e-04 -1.369072e-03" Properties=species:S:1:pos:R:3:forces:R:3 Config_type=AlGaN_super3_51_1_8.xyz
Al 1.582055e+00 8.807836e-01 2.477397e+00 5.896498e-05 -1.014054e-04 3.180862e-04
Ga 1.596664e+00 9.045874e-01 7.706958e+00 4.458060e-04 -4.859522e-04 3.824000e-04
Ga 1.590086e+00 8.935904e-01 -2.767239e+00 3.116747e-04 -2.464400e-04 1.908193e-04
Ga -2.714388e-02 3.669302e+00 2.475508e+00 -3.563068e-04 -1.502524e-04 2.406524e-04
Al -1.204144e-02 3.689650e+00 7.704435e+00 3.469724e-05 1.422784e-04 3.437026e-04
Ga -2.387651e-02 3.687680e+00 -2.762563e+00 -1.431202e-05 -7.551321e-05 3.001368e-04
Ga 3.198659e+00 -1.909854e+00 2.478507e+00 -3.348112e-04 -5.008677e-04 2.779938e-04
Ga 3.226269e+00 -1.907198e+00 7.706450e+00 -7.548360e-06 -1.809519e-04 2.323079e-04
Ga 3.209523e+00 -1.904795e+00 -2.767643e+00 7.073102e-05 -9.297477e-05 2.396696e-04
Ga -4.888556e+00 8.808614e-01 2.473850e+00 -3.545601e-04 -5.196220e-04 -2.895728e-05
Ga -4.862565e+00 8.977936e-01 7.708736e+00 2.397766e-04 -2.433320e-04 9.060827e-05
Ga -4.873974e+00 8.968440e-01 -2.762836e+00 2.002391e-04 -1.246688e-04 1.040818e-04
Ga -6.495062e+00 3.674020e+00 2.488873e+00 -7.456772e-04 -5.185712e-04 1.296656e-04
Ga -6.478054e+00 3.695273e+00 7.694267e+00 5.224335e-05 1.219811e-04 2.610914e-04
Ga -6.488284e+00 3.689459e+00 -2.767180e+00 -1.533122e-04 -3.883277e-05 1.711538e-04
Ga -3.259135e+00 -1.914580e+00 2.480294e+00 -5.845951e-04 -5.848540e-04 5.697449e-05
Ga -3.244917e+00 -1.906089e+00 7.710475e+00 1.052854e-04 -1.732908e-04 1.670028e-04
Ga -3.250928e+00 -1.903946e+00 -2.771731e+00 -9.816960e-06 -9.969597e-05 9.815111e-05
Ga -1.636726e+00 8.864175e-01 2.473903e+00 -1.198133e-04 -6.346667e-04 5.505809e-04
Ga -1.625048e+00 9.090077e-01 7.707350e+00 5.463982e-04 -6.161901e-04 -6.858419e-05
Ga -1.641465e+00 8.979758e-01 -2.768552e+00 5.393398e-04 -3.851569e-04 2.971643e-04
Ga -3.269502e+00 3.683212e+00 2.491428e+00 -2.829555e-04 -6.577944e-04 1.557111e-05
Ga -3.244158e+00 3.698683e+00 7.698105e+00 1.060517e-04 -5.159462e-05 1.953846e-04
Ga -3.255476e+00 3.692951e+00 -2.770245e+00 2.289714e-04 -2.107475e-04 5.543288e-05
Ga -2.561651e-02 -1.911128e+00 2.486716e+00 -1.004496e-04 -5.797950e-04 -8.932423e-05
Ga -9.633248e-03 -1.903228e+00 7.695746e+00 2.890544e-04 -4.493414e-04 4.020438e-04
Ga -2.016262e-02 -1.898810e+00 -2.763463e+00 2.779983e-04 -2.498475e-04 1.680801e-04
Ga -1.346546e-02 1.822907e+00 5.090147e+00 -4.562106e-04 3.323236e-04 7.521613e-04
Ga -3.132495e-02 1.826327e+00 -5.399837e+00 -5.689417e-04 5.335662e-04 4.360647e-04
Ga -7.122352e-03 1.829035e+00 -1.342988e-01 -1.313327e-03 -7.422906e-05 3.219129e-04
Ga 3.211035e+00 -3.773564e+00 5.103965e+00 -6.427189e-04 1.965181e-04 7.673237e-05
Ga 3.209895e+00 -3.777862e+00 -5.403920e+00 -3.777352e-04 2.902546e-04 2.131141e-04
Ga 3.224927e+00 -3.755197e+00 -1.398574e-01 -2.053585e-03 -1.432035e-03 -3.919858e-05
Ga 1.595825e+00 -9.756179e-01 5.081549e+00 -9.007627e-04 5.749726e-04 -5.870556e-06
Ga 1.588094e+00 -9.788643e-01 -5.391559e+00 -7.245764e-04 4.818042e-04 -4.933445e-06
Ga 1.612331e+00 -9.547793e-01 -1.277385e-01 -2.343393e-03 -1.002518e-03 -3.087698e-04
Ga 3.207524e+00 1.826365e+00 5.079386e+00 -4.441702e-04 1.438162e-04 4.984993e-04
Ga 3.197933e+00 1.821409e+00 -5.391889e+00 -2.172190e-04 2.496677e-04 2.954849e-04
Ga 3.214331e+00 1.839447e+00 -1.300953e-01 -1.764308e-03 -1.591893e-03 1.483640e-04
Ga 6.448723e+00 -3.771204e+00 5.103602e+00 -2.022319e-04 -1.456931e-05 1.794736e-04
Ga 6.427029e+00 -3.777539e+00 -5.404284e+00 -2.571904e-04 7.373577e-05 2.978704e-04
Ga 6.456744e+00 -3.753942e+00 -1.402830e-01 -1.625796e-03 -1.495141e-03 1.367912e-05
Ga 4.830562e+00 -9.730915e-01 5.095225e+00 -5.829591e-04 2.054507e-04 1.023757e-04
Ga 4.817773e+00 -9.752478e-01 -5.387087e+00 -4.989748e-04 2.752759e-04 8.601847e-06
Ga 4.842143e+00 -9.581187e-01 -1.451049e-01 -2.008760e-03 -1.431256e-03 -3.811074e-04
Ga -3.257337e+00 1.832064e+00 5.090749e+00 -4.846842e-04 1.874728e-04 3.653418e-04
Ga -3.265964e+00 1.823058e+00 -5.392386e+00 -3.786918e-04 2.427483e-04 3.626525e-04
Ga -3.242261e+00 1.844650e+00 -1.420842e-01 -1.908805e-03 -1.602069e-03 8.639440e-05
Al -1.829659e-02 -3.766492e+00 5.092269e+00 -3.861474e-04 3.619004e-05 2.740615e-04
Ga -3.056157e-02 -3.769216e+00 -5.391132e+00 -3.057765e-04 6.610642e-05 4.176677e-04
Ga -6.198889e-03 -3.751231e+00 -1.443353e-01 -1.978969e-03 -1.637098e-03 9.543731e-06
Ga -1.627562e+00 -9.785073e-01 5.092765e+00 -6.675305e-04 1.984409e-04 3.299755e-05
Ga -1.641712e+00 -9.751921e-01 -5.392388e+00 -6.964106e-04 3.406574e-04 1.730831e-04
Ga -1.621015e+00 -9.575020e-01 -1.412736e-01 -2.229793e-03 -1.257566e-03 -1.806508e-04
N 1.589939e+00 8.908150e-01 4.402547e+00 6.304272e-04 -3.908238e-04 -4.836313e-04
N 1.580625e+00 8.879308e-01 -6.029801e+00 6.125726e-04 -2.746153e-04 -1.790691e-04
N 1.601069e+00 9.022146e-01 -7.840836e-01 8.722216e-04 5.322220e-06 -4.629427e-04
N -2.198516e-02 3.688426e+00 4.454533e+00 3.743728e-04 -2.306365e-04 -2.599931e-04
N -3.356334e-02 3.682387e+00 -6.088903e+00 3.388432e-04 -2.290437e-04 -4.475137e-04
N -1.417295e-02 3.695401e+00 -7.753052e-01 6.180927e-04 1.030991e-04 -7.818085e-04
N 3.213202e+00 -1.908228e+00 4.459261e+00 4.480099e-04 -3.829358e-04 -1.004351e-04
N 3.201402e+00 -1.907726e+00 -6.030030e+00 4.343072e-04 -2.880132e-04 -8.566529e-05
N 3.217765e+00 -1.892587e+00 -7.812552e-01 7.746950e-04 8.078374e-05 2.879911e-04
N -4.870216e+00 8.905797e-01 4.452470e+00 4.999442e-04 -1.171342e-04 -3.229713e-04
N -4.882617e+00 8.892411e-01 -6.028350e+00 5.088707e-04 -1.548777e-04 -2.618787e-04
N -4.865348e+00 9.077416e-01 -7.774583e-01 8.909448e-04 2.989156e-04 8.510887e-05
N -6.443925e+00 3.714167e+00 4.478715e+00 4.126274e-04 -2.011677e-05 -2.383963e-04
N -6.493171e+00 3.685965e+00 -6.038191e+00 1.701687e-04 -6.605835e-05 -4.044911e-04
N -6.476830e+00 3.698446e+00 -7.816836e-01 6.779354e-04 3.693396e-04 -1.010887e-04
N -3.249936e+00 -1.906273e+00 4.460417e+00 4.067306e-04 -3.068595e-04 -2.059828e-04
N -3.261862e+00 -1.906584e+00 -6.026706e+00 3.936578e-04 -2.012463e-04 -1.121428e-04
N -3.240771e+00 -1.893202e+00 -7.876270e-01 7.157141e-04 2.296980e-04 1.146988e-04
N -1.638697e+00 8.948603e-01 4.457857e+00 6.866944e-04 -4.426200e-04 -1.387787e-04
N -1.651663e+00 8.921001e-01 -6.029156e+00 7.472059e-04 -4.529991e-04 -2.097690e-04
N -1.632126e+00 9.069883e-01 -7.813829e-01 1.000654e-03 -1.207844e-04 1.408904e-04
N -3.295869e+00 3.716498e+00 4.480313e+00 1.955289e-04 -2.157213e-04 -2.266848e-04
N -3.269166e+00 3.689043e+00 -6.035621e+00 3.872397e-04 -3.283221e-04 -2.610093e-04
N -3.245603e+00 3.703941e+00 -7.869844e-01 7.409893e-04 1.306433e-04 -1.303664e-04
N -2.063326e-02 -1.951912e+00 4.473503e+00 5.827279e-04 -7.613143e-04 8.375459e-06
N -3.092073e-02 -1.907531e+00 -6.037642e+00 5.616067e-04 -4.169447e-04 -3.195575e-04
N -8.504750e-03 -1.887015e+00 -7.789866e-01 9.793510e-04 -1.514680e-04 3.846772e-05
N 1.215476e-02 1.786990e+00 1.854891e+00 6.316136e-04 5.035748e-04 -1.055276e-04
N -9.880921e-03 1.874014e+00 7.082272e+00 -4.186135e-04 5.817629e-04 -3.026542e-04
N -2.425512e-02 1.826023e+00 -3.412570e+00 -2.402977e-04 4.024387e-04 -4.435351e-04
N 3.196133e+00 -3.785896e+00 1.843886e+00 1.614428e-03 1.874331e-03 -3.091693e-04
N 3.263641e+00 -3.791451e+00 7.091117e+00 1.208601e-04 5.883203e-05 -1.260327e-04
N 3.213720e+00 -3.771444e+00 -3.415337e+00 -9.723543e-05 3.616473e-04 -2.851593e-04
N 1.582780e+00 -9.387921e-01 1.864361e+00 1.125867e-03 1.754567e-03 -1.742366e-04
N 1.608421e+00 -9.667225e-01 7.065043e+00 -3.991346e-04 4.862054e-04 -2.374615e-04
N 1.595450e+00 -9.735165e-01 -3.408480e+00 -4.011161e-04 4.245853e-04 -1.469475e-04
N 3.150805e+00 1.787742e+00 1.861213e+00 1.477145e-03 1.696553e-03 -1.120040e-05
N 3.214348e+00 1.825406e+00 7.062548e+00 -1.329939e-04 1.478219e-04 -3.993577e-04
N 3.204511e+00 1.825057e+00 -3.407982e+00 5.624086e-05 1.899210e-04 -2.781358e-04
N 6.431621e+00 -3.782862e+00 1.841232e+00 1.764097e-03 1.586188e-03 -7.538978e-05
N 6.408375e+00 -3.788566e+00 7.091274e+00 -1.772221e-04 -1.453084e-04 -2.030892e-04
N 6.436479e+00 -3.771098e+00 -3.415158e+00 2.166807e-04 1.481280e-04 -3.684622e-04
N 4.814360e+00 -9.894336e-01 1.834596e+00 1.525774e-03 1.868563e-03 1.565118e-04
N 4.837275e+00 -9.679936e-01 7.072942e+00 -2.353463e-04 7.799166e-05 -2.159442e-04
N 4.824625e+00 -9.703285e-01 -3.403662e+00 -1.682217e-04 1.766477e-04 -1.370913e-04
N -3.267397e+00 1.813051e+00 1.842494e+00 1.713341e-03 1.767508e-03 3.894042e-05
N -3.246674e+00 1.828734e+00 7.070385e+00 -1.461743e-04 2.210483e-04 -1.323132e-04
N -3.258227e+00 1.825989e+00 -3.407424e+00 -1.616505e-04 2.571154e-04 -1.461246e-04
N -3.527820e-02 -3.781963e+00 1.835654e+00 1.700474e-03 1.806357e-03 3.514418e-04
N -1.178051e-02 -3.763395e+00 7.015106e+00 -8.055869e-05 1.370330e-05 -2.965830e-04
N -2.389077e-02 -3.765294e+00 -3.406618e+00 2.761327e-05 2.432744e-04 -1.621911e-04
N -1.645680e+00 -9.867869e-01 1.841091e+00 1.346095e-03 2.012762e-03 7.257674e-06
N -1.626609e+00 -9.658758e-01 7.073067e+00 -4.466990e-04 3.580496e-04 -6.128298e-05
N -1.635160e+00 -9.700600e-01 -3.407776e+00 -3.005040e-04 2.779391e-04 -1.250545e-04
