108
Energy=-1.306398e+06 Lattice="9.495304e+00 0.000000e+00 0.000000e+00 -4.747970e+00 8.220923e+00 0.000000e+00 -1.829206e-03 -3.455367e-04 1.532249e+01" Stress="-1.225432e-03 -4.360974e-05 -3.177015e-05 -4.403286e-05 -1.613834e-03 -2.710391e-05 -3.481137e-05 -2.260387e-05 -8.760566e-04" Properties=species:S:1:pos:R:3:forces:R:3 Config_type=AlGaN_super3_19_2_17.xyz
Al 1.566266e+00 8.766308e-01 2.439140e+00 -2.958200e-05 -5.396098e-04 -5.795602e-04
Al 1.559191e+00 8.677660e-01 7.480190e+00 3.408841e-05 -3.335369e-05 3.071523e-04
Al 1.560728e+00 8.692356e-01 -2.706018e+00 1.449352e-04 -4.828489e-05 1.286082e-04
Al -2.330165e-02 3.609613e+00 2.421240e+00 8.415706e-04 1.583542e-04 1.362140e-04
Al -1.367423e-02 3.609451e+00 7.491222e+00 2.535667e-04 4.403092e-05 7.857256e-04
Al -2.489334e-02 3.610422e+00 -2.692885e+00 -2.411818e-04 6.054505e-05 1.644487e-04
Al 3.148631e+00 -1.857457e+00 2.401441e+00 3.029585e-04 -1.931375e-04 -9.420969e-04
Al 3.140431e+00 -1.853295e+00 7.536078e+00 -1.592527e-04 -5.410142e-05 1.864636e-04
Ga 3.147785e+00 -1.860763e+00 -2.720555e+00 -1.893971e-05 5.025483e-06 2.705562e-04
Al -4.779091e+00 8.691913e-01 2.407041e+00 -4.253161e-04 7.192590e-04 -6.644331e-04
Al -4.770743e+00 8.729464e-01 7.503533e+00 -1.419206e-05 -5.419694e-04 5.791803e-04
Al -4.774859e+00 8.684913e-01 -2.695664e+00 1.794080e-04 -8.260045e-05 2.846572e-04
Ga -6.369527e+00 3.593549e+00 2.405282e+00 -2.322983e-04 8.330991e-05 -4.278374e-04
Al -6.369635e+00 3.606353e+00 7.494536e+00 -5.240574e-05 2.411507e-04 3.366946e-04
Ga -6.358986e+00 3.601521e+00 -2.672646e+00 -1.738136e-04 1.422543e-05 -6.004336e-05
Ga -3.197026e+00 -1.861335e+00 2.406686e+00 -2.530802e-04 -1.825668e-04 6.763186e-05
Al -3.181887e+00 -1.864842e+00 7.504069e+00 -2.798858e-04 -1.132882e-05 1.224667e-04
Ga -3.185203e+00 -1.855181e+00 -2.694690e+00 -1.288471e-04 2.126077e-04 1.829551e-04
Al -1.610733e+00 8.754236e-01 2.420174e+00 5.447601e-04 9.217275e-04 -1.224944e-04
Al -1.607125e+00 8.672463e-01 7.500556e+00 -1.090337e-04 7.483241e-05 -6.462601e-04
Ga -1.607198e+00 8.700273e-01 -2.704676e+00 5.293042e-04 -1.616242e-04 2.814537e-04
Ga -3.174390e+00 3.604889e+00 2.398687e+00 -3.048887e-04 -3.607697e-04 -4.153331e-04
Ga -3.181888e+00 3.602733e+00 7.523606e+00 5.837062e-05 -2.406628e-04 2.517023e-04
Ga -3.178069e+00 3.610944e+00 -2.693159e+00 1.904144e-04 -2.215822e-04 -4.729793e-05
Ga -1.971507e-02 -1.844925e+00 2.427027e+00 5.013494e-05 7.231009e-05 7.652200e-05
Al -2.226554e-02 -1.841710e+00 7.503955e+00 -3.968054e-05 6.732155e-05 1.684431e-04
Al -2.379064e-02 -1.847535e+00 -2.705581e+00 1.141043e-04 -4.320452e-05 4.026939e-05
Al -2.208837e-02 1.777377e+00 4.953315e+00 -1.236980e-04 4.786091e-04 -3.525051e-05
Ga -3.135294e-02 1.780689e+00 -5.275673e+00 2.235537e-04 4.078326e-04 1.851813e-04
Ga -2.262016e-02 1.795467e+00 -1.286151e-01 -2.230013e-04 -7.504953e-05 5.112060e-04
Ga 3.156668e+00 -3.688366e+00 4.967389e+00 -1.362950e-04 1.677745e-06 1.953395e-04
Al 3.151350e+00 -3.688073e+00 -5.273193e+00 3.692898e-05 -3.140464e-04 -2.601729e-04
Al 3.154708e+00 -3.693961e+00 -1.311561e-01 4.714690e-04 9.301734e-05 -3.961507e-04
Al 1.563916e+00 -9.388238e-01 4.970914e+00 4.034203e-05 -5.586210e-05 -8.186513e-05
Al 1.558232e+00 -9.553109e-01 -5.269865e+00 -1.328794e-04 1.188875e-04 -4.773719e-04
Ga 1.564443e+00 -9.547277e-01 -1.444729e-01 -3.471105e-04 3.307532e-04 6.458051e-04
Al 3.136128e+00 1.778845e+00 4.971697e+00 1.928391e-04 6.186859e-04 -3.677133e-04
Ga 3.152091e+00 1.764930e+00 -5.269845e+00 3.667600e-04 1.056009e-04 2.595174e-04
Al 3.153655e+00 1.778828e+00 -1.435225e-01 -1.927761e-04 -5.270910e-04 2.794540e-04
Al 6.305263e+00 -3.702707e+00 4.981951e+00 3.709478e-04 3.718698e-04 -7.299700e-06
Ga 6.294580e+00 -3.681158e+00 -5.274017e+00 1.123206e-04 1.452145e-04 1.369492e-04
Al 6.299426e+00 -3.691534e+00 -1.470446e-01 -4.900188e-04 6.555612e-04 4.446717e-04
Ga 4.721898e+00 -9.417983e-01 4.974078e+00 7.423561e-05 -6.368657e-05 1.870162e-04
Al 4.730529e+00 -9.438868e-01 -5.289734e+00 1.955141e-04 2.213376e-04 -3.983066e-04
Al 4.732013e+00 -9.421471e-01 -1.338356e-01 -4.873998e-04 1.618333e-04 6.278119e-04
Al -3.186944e+00 1.767152e+00 4.957900e+00 4.829567e-06 2.589342e-04 1.984080e-04
Al -3.189609e+00 1.768662e+00 -5.265834e+00 2.883079e-04 2.786975e-04 -1.289200e-04
Al -3.203114e+00 1.777579e+00 -1.347485e-01 6.339997e-07 -4.445799e-04 5.949648e-05
Ga -3.661350e-02 -3.689544e+00 4.988884e+00 1.609990e-04 -1.618203e-04 1.983805e-04
Ga -1.664420e-02 -3.674964e+00 -5.268866e+00 1.374952e-04 -1.771890e-04 1.620871e-04
Al -2.734972e-02 -3.688912e+00 -1.536285e-01 1.671802e-04 2.429544e-05 6.262370e-05
Al -1.603150e+00 -9.366768e-01 4.984817e+00 -2.077828e-04 -2.588853e-05 9.292158e-06
Al -1.601825e+00 -9.440337e-01 -5.287535e+00 -1.580181e-03 -9.747894e-04 -6.948854e-04
Al -1.611895e+00 -9.567468e-01 -1.388936e-01 -1.968634e-06 5.668905e-04 -1.228527e-04
N 1.563597e+00 8.743295e-01 4.365546e+00 -6.715491e-05 -8.858644e-05 -1.310168e-04
N 1.560509e+00 8.264032e-01 -5.928081e+00 -2.488913e-04 -4.324480e-04 -2.152565e-04
N 1.596284e+00 8.972409e-01 -7.965067e-01 5.132590e-04 9.343310e-05 4.358537e-05
N 2.197826e-02 3.592487e+00 4.339845e+00 -4.529984e-04 -5.611755e-04 -3.798519e-04
N -5.988541e-02 3.631206e+00 -5.926605e+00 -4.116987e-04 1.104777e-04 -6.324894e-04
N -2.815902e-02 3.657017e+00 -7.791539e-01 1.567785e-04 3.703984e-04 2.361015e-04
N 3.105552e+00 -1.839958e+00 4.307741e+00 -6.663455e-04 7.104580e-05 9.221826e-04
N 3.139230e+00 -1.862434e+00 -5.860905e+00 -1.621787e-04 3.351002e-05 -4.128859e-06
N 3.188785e+00 -1.890312e+00 -7.372684e-01 1.930147e-04 -8.449018e-06 9.066662e-05
N -4.775819e+00 9.225546e-01 4.324957e+00 1.022902e-04 -4.661620e-06 6.997604e-04
N -4.726357e+00 8.583434e-01 -5.909918e+00 -5.061763e-04 -8.782007e-04 -5.079548e-04
N -4.769198e+00 8.710113e-01 -7.668978e-01 -4.127897e-05 1.899564e-04 -5.009570e-05
N -6.396905e+00 3.587961e+00 4.385565e+00 -8.647753e-05 -4.609879e-04 1.633967e-04
N -6.355267e+00 3.608449e+00 -5.922161e+00 -2.950407e-04 7.525735e-05 -6.573952e-04
N -6.356216e+00 3.609647e+00 -6.920257e-01 3.651236e-05 -2.340548e-05 1.120233e-04
N -3.144724e+00 -1.889736e+00 4.391185e+00 6.518726e-05 -1.544798e-04 1.153587e-04
N -3.184841e+00 -1.820615e+00 -5.903378e+00 1.019694e-03 6.599433e-04 6.421077e-04
N -3.188539e+00 -1.858582e+00 -7.046533e-01 -2.042145e-04 -1.231101e-03 -1.230512e-04
N -1.609401e+00 8.709410e-01 4.349035e+00 2.450091e-04 -2.294722e-05 -3.080157e-04
N -1.646999e+00 8.535339e-01 -5.904117e+00 -7.086035e-05 3.422872e-04 4.212793e-04
N -1.648929e+00 8.518913e-01 -7.281293e-01 2.487117e-04 1.378998e-04 6.470969e-05
N -3.189246e+00 3.569914e+00 4.372258e+00 1.611787e-04 -3.748085e-04 -5.855701e-06
N -3.145465e+00 3.583554e+00 -5.827037e+00 2.747844e-04 3.516043e-04 4.306754e-05
N -3.180888e+00 3.612117e+00 -6.982654e-01 -1.357571e-04 1.237614e-04 2.587151e-04
N -2.423188e-02 -1.814421e+00 4.400069e+00 6.738832e-05 1.880871e-04 -1.017006e-05
N -2.020061e-02 -1.809893e+00 -5.905627e+00 6.518177e-04 1.041163e-04 7.369448e-05
N -6.524925e-02 -1.879468e+00 -7.836733e-01 1.049725e-04 -3.621473e-04 -7.275250e-05
N -1.991848e-02 1.785038e+00 1.865707e+00 -5.369754e-04 -4.895765e-04 -7.055161e-05
N -2.725134e-02 1.783658e+00 6.884402e+00 -4.982745e-05 -2.160032e-05 -1.587585e-04
N 1.789612e-02 1.810057e+00 -3.291135e+00 -8.773278e-05 1.567256e-04 1.792753e-04
N 3.193129e+00 -3.669661e+00 1.787002e+00 -6.326036e-04 -8.286821e-05 4.042263e-04
N 3.184654e+00 -3.660289e+00 6.936403e+00 -2.749443e-04 -9.431779e-07 -1.760535e-04
N 3.188632e+00 -3.719399e+00 -3.360186e+00 -3.229872e-05 1.590666e-04 1.148064e-05
N 1.600184e+00 -9.250020e-01 1.830804e+00 -8.295568e-04 9.552307e-04 -4.139576e-04
N 1.570574e+00 -9.574171e-01 6.891295e+00 -2.610231e-04 1.556129e-04 -1.743561e-04
N 1.519911e+00 -9.296991e-01 -3.342859e+00 -4.811235e-04 1.940921e-04 -2.671492e-05
N 3.136738e+00 1.729484e+00 1.776527e+00 2.914991e-04 1.516699e-04 6.013685e-05
N 3.144622e+00 1.781525e+00 6.892314e+00 9.626508e-05 -1.543074e-04 -2.238621e-04
N 3.143740e+00 1.737731e+00 -3.289650e+00 1.382223e-04 -9.978790e-05 -2.153572e-05
N 6.259675e+00 -3.717730e+00 1.761016e+00 -5.646617e-05 -5.758355e-05 -1.925800e-04
N 6.304033e+00 -3.691649e+00 6.899241e+00 1.959573e-04 -1.381013e-04 -2.090219e-04
N 6.267985e+00 -3.714548e+00 -3.300423e+00 1.933314e-04 -1.811732e-04 1.597061e-04
N 4.683059e+00 -9.235695e-01 1.786235e+00 8.529952e-04 -3.526389e-04 -9.475314e-04
N 4.719114e+00 -9.553434e-01 6.954519e+00 2.061362e-04 7.044797e-04 -9.047113e-05
N 4.731960e+00 -9.019912e-01 -3.370372e+00 -2.003973e-04 4.405588e-06 -4.854126e-05
N -3.193704e+00 1.732042e+00 1.781469e+00 3.595595e-04 7.169232e-05 1.886433e-04
N -3.189754e+00 1.736329e+00 6.871297e+00 3.363989e-04 -3.223664e-04 -5.771829e-04
N -3.234028e+00 1.761413e+00 -3.351212e+00 1.409449e-05 -2.046749e-04 5.250697e-05
N -2.701794e-02 -3.684838e+00 1.755764e+00 2.046075e-04 6.367069e-05 -2.414373e-04
N -6.159780e-02 -3.666322e+00 6.957272e+00 -9.363163e-05 -1.165180e-04 -2.241123e-04
N -2.657546e-02 -3.644929e+00 -3.291363e+00 2.838514e-04 4.825889e-05 2.660789e-04
N -1.604158e+00 -9.026587e-01 1.766509e+00 2.424701e-04 -6.896191e-04 2.919094e-04
N -1.605428e+00 -9.480910e-01 6.900199e+00 -1.122342e-04 5.532291e-05 -2.169287e-04
N -1.565831e+00 -9.750935e-01 -3.371943e+00 3.943748e-05 -3.644829e-05 -4.722166e-05
