108
Energy=-1.626827e+06 Lattice="9.533556e+00 0.000000e+00 0.000000e+00 -4.769769e+00 8.255803e+00 0.000000e+00 -1.362420e-03 -3.593082e-04 1.540271e+01" Stress="-1.931609e-03 -1.937278e-04 6.188114e-05 -1.979878e-04 -2.079079e-03 4.568171e-05 4.436451e-05 3.825282e-05 -2.803915e-03" Properties=species:S:1:pos:R:3:forces:R:3 Config_type=AlGaN_super3_26_1_37.xyz
Al 1.569415e+00 8.720704e-01 2.424584e+00 1.573659e-04 2.140541e-04 3.138040e-04
Al 1.576682e+00 8.864691e-01 7.549510e+00 5.308639e-05 -5.457286e-04 -1.761611e-03
Al 1.571790e+00 8.733047e-01 -2.715033e+00 8.350911e-05 -2.058280e-05 9.502335e-05
Al -2.711474e-02 3.628393e+00 2.442917e+00 -2.568148e-04 5.964212e-04 5.515823e-04
Al -9.445728e-03 3.643357e+00 7.523561e+00 -1.802375e-03 7.715735e-04 -6.913765e-04
Al -5.174337e-03 3.627957e+00 -2.710895e+00 -5.835774e-05 5.293917e-05 6.449008e-05
Al 3.150679e+00 -1.867817e+00 2.429812e+00 7.186424e-04 -5.135560e-04 9.088124e-04
Al 3.161319e+00 -1.879546e+00 7.523632e+00 -3.822341e-04 -3.420013e-04 -1.248717e-04
Ga 3.145396e+00 -1.866145e+00 -2.699699e+00 -3.339083e-05 2.163766e-06 4.166556e-05
Al -4.791571e+00 8.763144e-01 2.441866e+00 -5.517290e-04 2.186169e-04 3.273971e-04
Ga -4.820216e+00 8.698922e-01 7.530588e+00 1.701439e-05 2.454096e-04 -4.962453e-05
Al -4.802600e+00 8.844329e-01 -2.710632e+00 9.156770e-05 -6.294549e-06 3.136539e-05
Ga -6.380981e+00 3.623777e+00 2.434408e+00 -8.822088e-05 -7.311423e-05 1.470259e-04
Al -6.400437e+00 3.629926e+00 7.531534e+00 8.391381e-04 -6.300305e-04 -1.245055e-04
Ga -6.396319e+00 3.623352e+00 -2.715567e+00 -1.769703e-05 2.813102e-05 -4.865421e-05
Ga -3.219080e+00 -1.879165e+00 2.441121e+00 -6.470587e-05 -1.388104e-04 8.718917e-05
Al -3.203756e+00 -1.893465e+00 7.540635e+00 -4.809596e-05 2.896194e-04 -1.619787e-05
Ga -3.194394e+00 -1.889348e+00 -2.724731e+00 -8.913895e-05 3.579401e-05 1.116493e-04
Al -1.615186e+00 8.979862e-01 2.410669e+00 4.684630e-05 -1.335832e-04 1.579746e-04
Ga -1.597312e+00 8.665327e-01 7.567540e+00 2.237735e-05 8.847770e-05 -7.841494e-05
Ga -1.607461e+00 8.753300e-01 -2.710190e+00 8.813228e-05 -7.160194e-05 6.099464e-05
Al -3.199024e+00 3.628734e+00 2.421318e+00 -1.691031e-04 -3.120537e-05 9.120228e-04
Ga -3.198821e+00 3.656163e+00 7.526851e+00 1.744442e-04 -8.954908e-07 -1.241077e-04
Ga -3.205093e+00 3.627043e+00 -2.686171e+00 3.542653e-05 -1.069164e-04 4.986179e-05
Ga 1.303928e-04 -1.873761e+00 2.426197e+00 -1.835617e-04 -8.240840e-05 2.113849e-04
Al -2.739171e-02 -1.877967e+00 7.542169e+00 4.199980e-04 2.985910e-05 -1.236247e-03
Al -1.606672e-02 -1.863736e+00 -2.701848e+00 2.763808e-05 -9.197633e-05 6.397588e-05
Ga -9.730525e-03 1.809315e+00 4.979152e+00 1.298312e-04 2.170754e-04 7.884594e-05
Ga -7.746178e-05 1.808029e+00 -5.283816e+00 -1.357519e-04 1.033311e-04 1.409554e-04
Ga -1.218421e-02 1.801097e+00 -1.317841e-01 -1.946894e-05 5.913600e-05 -7.537887e-05
Al 3.164496e+00 -3.696116e+00 4.958815e+00 4.701689e-04 -1.113468e-04 -2.813788e-04
Ga 3.179167e+00 -3.708538e+00 -5.287188e+00 -2.307846e-04 1.384270e-04 -3.174400e-05
Ga 3.158892e+00 -3.715500e+00 -1.130936e-01 2.941806e-05 4.211193e-05 4.814710e-05
Ga 1.587032e+00 -9.597123e-01 4.999827e+00 -7.781132e-05 9.815271e-05 2.098485e-04
Ga 1.559371e+00 -9.492117e-01 -5.305342e+00 9.468576e-06 -5.025810e-05 1.008314e-04
Al 1.561536e+00 -9.579947e-01 -1.353868e-01 -1.647316e-04 1.260742e-04 -1.932777e-05
Al 3.152621e+00 1.799160e+00 4.975174e+00 -4.539781e-04 2.738806e-04 1.855774e-04
Al 3.143642e+00 1.802540e+00 -5.285380e+00 1.522157e-04 1.474600e-04 6.736114e-05
Ga 3.159287e+00 1.793807e+00 -1.351302e-01 4.078840e-05 2.623345e-05 1.577321e-04
Al 6.333828e+00 -3.711300e+00 5.009500e+00 -5.293121e-04 -5.051216e-04 -4.336618e-04
Al 6.337775e+00 -3.712146e+00 -5.324880e+00 7.029440e-04 -7.687269e-04 2.230932e-04
Al 6.334883e+00 -3.716480e+00 -1.324392e-01 5.364997e-05 8.075861e-06 1.446764e-04
Al 4.734408e+00 -9.685379e-01 4.985751e+00 -1.525697e-04 5.003580e-04 -6.466232e-04
Ga 4.754690e+00 -9.596609e-01 -5.296650e+00 -2.868430e-04 1.369902e-04 3.204607e-05
Ga 4.744051e+00 -9.459266e-01 -1.290213e-01 2.053927e-05 -3.964476e-05 -4.717831e-05
Ga -3.214790e+00 1.805288e+00 4.960116e+00 7.223445e-05 -7.366132e-05 -8.525967e-06
Ga -3.213966e+00 1.789794e+00 -5.280008e+00 -4.112958e-05 5.112274e-05 2.618519e-05
Al -3.217674e+00 1.799351e+00 -1.133155e-01 5.144336e-05 -1.493633e-06 2.564489e-05
Al -2.559327e-02 -3.718594e+00 4.998564e+00 -6.126240e-04 6.371514e-05 -1.947475e-05
Ga -4.705913e-02 -3.700138e+00 -5.294819e+00 1.257316e-05 -2.193095e-04 6.814951e-05
Al -2.003782e-02 -3.704181e+00 -1.427272e-01 -1.886700e-05 -2.818362e-05 1.345299e-04
Ga -1.621301e+00 -9.674329e-01 4.994198e+00 8.282508e-05 -5.028409e-05 2.536731e-05
Al -1.608687e+00 -9.787338e-01 -5.293099e+00 -4.744163e-05 1.537071e-04 7.873120e-05
Ga -1.600831e+00 -9.680930e-01 -1.361048e-01 -1.032623e-04 -2.500120e-05 1.049219e-04
N 1.606423e+00 8.943458e-01 4.333006e+00 -3.481086e-05 -6.757052e-05 -2.734990e-04
N 1.611520e+00 9.052428e-01 -5.946155e+00 7.316942e-05 6.077167e-05 7.605153e-04
N 1.568968e+00 8.298883e-01 -7.958886e-01 5.027148e-06 -1.097178e-04 -8.630174e-05
N -1.416979e-02 3.680006e+00 4.357619e+00 -1.094214e-04 3.855270e-04 -4.805369e-06
N 1.512552e-02 3.654823e+00 -5.966824e+00 1.314631e-04 -7.006020e-05 -2.774869e-05
N 1.998116e-02 3.655454e+00 -7.949529e-01 -1.048312e-05 7.656724e-06 -1.179573e-04
N 3.193537e+00 -1.891385e+00 4.348009e+00 -8.641772e-05 -2.529749e-05 -4.328130e-04
N 3.158603e+00 -1.876827e+00 -5.966257e+00 5.957277e-05 3.613503e-05 -1.134678e-04
N 3.115281e+00 -1.854931e+00 -7.296594e-01 2.552043e-05 1.242061e-05 -7.324347e-05
N -4.835945e+00 8.517560e-01 4.360126e+00 4.097949e-04 -7.607362e-04 1.757497e-04
N -4.840625e+00 9.019311e-01 -5.903009e+00 7.176888e-05 -6.432070e-05 2.647414e-05
N -4.750255e+00 9.054554e-01 -7.952034e-01 1.245560e-04 -6.814537e-06 -9.136115e-05
N -6.382596e+00 3.633763e+00 4.421600e+00 2.118219e-04 5.861573e-04 3.343299e-04
N -6.419570e+00 3.598285e+00 -5.937092e+00 -6.830906e-04 4.483800e-04 -2.018363e-04
N -6.383217e+00 3.675947e+00 -7.284930e-01 -2.803349e-05 8.136388e-05 -7.782947e-05
N -3.243969e+00 -1.905342e+00 4.413316e+00 4.039586e-05 9.460154e-06 9.660932e-05
N -3.158566e+00 -1.899533e+00 -5.931359e+00 -3.405479e-06 2.413341e-04 -4.134490e-04
N -3.199606e+00 -1.925497e+00 -7.461919e-01 9.534398e-06 3.127613e-05 -1.064595e-04
N -1.609986e+00 8.788703e-01 4.316574e+00 4.593476e-05 -4.734694e-05 -9.210642e-05
N -1.607151e+00 8.320861e-01 -5.862742e+00 1.957745e-04 -1.747524e-04 7.028639e-05
N -1.656135e+00 9.048023e-01 -7.294491e-01 1.236053e-04 -2.976452e-05 -9.918873e-05
N -3.207519e+00 3.686333e+00 4.349900e+00 -7.579606e-05 -4.104649e-04 -8.818779e-04
N -3.201296e+00 3.638436e+00 -5.908562e+00 4.176775e-05 -1.634457e-04 9.538203e-06
N -3.239667e+00 3.603940e+00 -7.066251e-01 1.122433e-06 -5.394021e-05 -1.987103e-05
N -1.574475e-02 -1.921978e+00 4.393570e+00 -2.465427e-05 -7.328647e-05 -9.200075e-05
N -6.119498e-02 -1.851998e+00 -5.955105e+00 -4.387236e-05 1.407212e-05 4.260997e-04
N 2.258595e-02 -1.895909e+00 -7.749038e-01 1.154823e-04 -1.324834e-05 -4.105400e-05
N -1.590741e-02 1.801258e+00 1.859515e+00 -8.473340e-05 -1.311373e-04 -1.382588e-04
N 1.780154e-02 1.816994e+00 6.959757e+00 1.435470e-04 3.478972e-04 2.952138e-04
N 2.398999e-02 1.820259e+00 -3.296337e+00 -7.215457e-06 1.111709e-04 -1.410753e-04
N 3.159370e+00 -3.710070e+00 1.873347e+00 6.017758e-04 6.152970e-05 -2.040815e-04
N 3.197367e+00 -3.682469e+00 6.880268e+00 1.578724e-03 -9.060745e-04 1.251199e-03
N 3.200552e+00 -3.734819e+00 -3.308530e+00 9.004515e-05 3.009432e-05 -1.084868e-04
N 1.608905e+00 -9.303207e-01 1.786961e+00 -4.998303e-04 2.075086e-04 -4.230462e-04
N 1.568228e+00 -9.536835e-01 6.983824e+00 -4.843691e-04 2.228942e-04 6.278742e-04
N 1.524250e+00 -9.340877e-01 -3.319702e+00 -1.636255e-04 1.257107e-04 -7.728703e-05
N 3.156460e+00 1.747505e+00 1.840891e+00 2.647298e-04 -2.168622e-04 -1.465588e-04
N 3.107652e+00 1.819977e+00 6.890147e+00 -2.307270e-04 3.590191e-04 2.934394e-04
N 3.150496e+00 1.749083e+00 -3.353340e+00 -1.534134e-06 -6.812196e-05 -4.234727e-05
N 6.290509e+00 -3.736976e+00 1.777102e+00 -1.186894e-05 7.157310e-05 -2.094163e-04
N 6.334265e+00 -3.708715e+00 6.927714e+00 4.962223e-05 2.114456e-06 3.473942e-04
N 6.292871e+00 -3.736592e+00 -3.403717e+00 -5.606497e-05 3.645043e-05 -3.468304e-04
N 4.702184e+00 -9.284405e-01 1.845818e+00 1.467779e-04 1.568846e-04 -2.328497e-04
N 4.743560e+00 -1.005776e+00 6.906738e+00 9.207040e-04 -8.353633e-05 5.261337e-04
N 4.744773e+00 -9.125527e-01 -3.318811e+00 -1.863378e-05 3.246753e-06 -6.841035e-05
N -3.212086e+00 1.796320e+00 1.821398e+00 2.822882e-05 -1.678217e-04 -1.042368e-04
N -3.200417e+00 1.793646e+00 6.924045e+00 3.336993e-05 -1.588625e-04 5.216123e-05
N -3.244766e+00 1.773961e+00 -3.313952e+00 -2.760929e-05 -4.653441e-05 -2.362979e-05
N 1.563456e-02 -3.731234e+00 1.769945e+00 -2.018660e-05 6.914980e-05 -2.372253e-04
N -6.857598e-02 -3.687923e+00 6.915693e+00 -4.245462e-04 1.619433e-04 3.562450e-04
N -2.548111e-02 -3.659575e+00 -3.314975e+00 3.734102e-05 5.922803e-05 -1.587015e-05
N -1.611162e+00 -9.151635e-01 1.833937e+00 -4.360662e-05 4.226748e-05 -1.031677e-04
N -1.615752e+00 -1.002476e+00 6.964030e+00 -3.218305e-04 -1.327417e-04 1.630716e-04
N -1.566250e+00 -9.865536e-01 -3.367527e+00 -6.809645e-05 -5.795157e-05 -1.126459e-04
