108
Energy=-5.739907e+05 Lattice="9.417253e+00 0.000000e+00 0.000000e+00 -4.722136e+00 8.146830e+00 0.000000e+00 1.260944e-02 5.012618e-03 1.509985e+01" Stress="7.455449e-04 -3.067196e-04 6.290938e-04 -3.116878e-04 -5.659970e-04 1.047434e-04 6.276610e-04 1.053556e-04 -3.551693e-05" Properties=species:S:1:pos:R:3:forces:R:3 Config_type=AlGaN_super3_3_1_9.xyz
Al 1.547591e+00 8.685874e-01 2.371760e+00 1.373075e-03 2.383379e-04 2.520884e-04
Al 1.548067e+00 8.757822e-01 7.382682e+00 8.445511e-04 -1.294279e-03 -2.796867e-04
Al 1.545663e+00 8.753768e-01 -2.652947e+00 -9.751004e-04 9.744241e-04 5.016324e-04
Al -2.089641e-02 3.582273e+00 2.368610e+00 3.279123e-04 5.082692e-04 1.337157e-04
Al -2.634265e-02 3.577930e+00 7.384273e+00 5.980870e-04 2.519237e-04 2.789770e-04
Al -3.730104e-02 3.572188e+00 -2.653204e+00 -4.949235e-05 -4.456647e-04 -1.070993e-03
Al 3.130606e+00 -1.846682e+00 2.374802e+00 9.029532e-04 -8.936587e-04 -1.861710e-04
Al 3.138075e+00 -1.853047e+00 7.383252e+00 -3.315588e-04 7.791068e-05 4.106080e-05
Al 3.138465e+00 -1.861338e+00 -2.647067e+00 -4.361734e-03 2.264004e-03 -2.628067e-03
Al -4.730657e+00 8.712460e-01 2.375227e+00 6.834086e-04 -8.255809e-05 -1.270640e-03
Al -4.732519e+00 8.700256e-01 7.393182e+00 7.161824e-04 -4.724593e-04 -2.724277e-04
Al -4.743476e+00 8.639030e-01 -2.666726e+00 1.005666e-03 3.344024e-05 -1.247539e-03
Al -6.302024e+00 3.584922e+00 2.378913e+00 -2.355860e-04 1.204526e-04 -1.471190e-03
Al -6.295558e+00 3.581532e+00 7.383608e+00 -5.318458e-04 3.379808e-04 -6.479406e-04
Al -6.310690e+00 3.567778e+00 -2.653864e+00 3.147632e-04 7.570773e-04 -1.281258e-03
Al -3.151353e+00 -1.845177e+00 2.376629e+00 -1.228345e-04 -7.341302e-04 -6.792465e-04
Al -3.149346e+00 -1.839465e+00 7.383578e+00 9.099847e-05 -6.583145e-04 -4.116569e-04
Al -3.170675e+00 -1.844130e+00 -2.651703e+00 1.098896e-03 -2.455466e-04 -6.467123e-04
Al -1.597221e+00 8.764858e-01 2.374345e+00 8.688328e-04 -5.503679e-04 -6.469232e-04
Al -1.594512e+00 8.744860e-01 7.390118e+00 1.741115e-03 -7.250122e-04 2.944573e-05
Al -1.611214e+00 8.734667e-01 -2.665431e+00 2.130909e-03 -8.048393e-04 3.082718e-04
Al -3.164120e+00 3.586612e+00 2.378855e+00 7.199048e-04 -4.437259e-04 -1.606095e-03
Al -3.164617e+00 3.589065e+00 7.390792e+00 1.003364e-03 -1.554565e-04 -7.489839e-05
Al -3.172570e+00 3.574519e+00 -2.666854e+00 6.863394e-04 1.865269e-04 -7.272751e-04
Al -1.293076e-02 -1.841223e+00 2.371456e+00 6.259780e-04 -1.181385e-03 -1.267849e-03
Al -1.899955e-02 -1.846023e+00 7.385687e+00 1.784212e-03 -1.349476e-04 -1.864522e-03
Ga -3.690535e-02 -1.854245e+00 -2.643334e+00 2.109315e-03 8.647518e-04 2.742580e-04
Al -1.960916e-02 1.770940e+00 4.873935e+00 -1.225381e-03 4.335200e-04 6.023043e-04
Al -3.817591e-02 1.766358e+00 -5.186940e+00 -1.175304e-03 -5.297587e-04 8.157792e-04
Al -2.775618e-02 1.765440e+00 -1.482961e-01 -1.396884e-03 -4.823364e-04 2.419808e-03
Al 3.133275e+00 -3.661237e+00 4.878757e+00 -9.991818e-04 1.978949e-04 -5.345680e-04
Al 3.118406e+00 -3.673581e+00 -5.186811e+00 -1.677391e-03 8.771077e-04 2.848602e-05
Al 3.120813e+00 -3.667700e+00 -1.433949e-01 -8.430366e-04 2.598076e-04 1.705528e-03
Al 1.563752e+00 -9.455192e-01 4.883693e+00 -1.796687e-03 6.939663e-04 6.139361e-05
Ga 1.555111e+00 -9.490254e-01 -5.191363e+00 -1.685207e-03 8.217838e-04 1.615467e-05
Al 1.570781e+00 -9.424591e-01 -1.195892e-01 -4.983618e-03 -4.479798e-04 -5.799607e-03
Al 3.117711e+00 1.773052e+00 4.878216e+00 -1.148613e-04 8.662188e-05 -3.459739e-04
Al 3.111799e+00 1.769606e+00 -5.189307e+00 -5.992261e-04 -7.882578e-04 7.597673e-04
Al 3.111951e+00 1.770373e+00 -1.463904e-01 -1.185989e-04 -1.159691e-04 2.876675e-03
Al 6.268094e+00 -3.657392e+00 4.884373e+00 -5.064909e-06 -1.235805e-04 -6.656522e-04
Ga 6.257843e+00 -3.662121e+00 -5.183242e+00 -2.301629e-04 -2.273173e-04 -4.106125e-04
Al 6.259413e+00 -3.662944e+00 -1.511013e-01 1.921148e-04 2.322244e-04 2.168977e-03
Al 4.699339e+00 -9.413527e-01 4.879131e+00 -7.795108e-04 6.112377e-04 -4.031678e-04
Al 4.691900e+00 -9.424707e-01 -5.186429e+00 -1.796139e-03 6.893806e-04 3.685319e-04
Al 4.690577e+00 -9.475069e-01 -1.399751e-01 -2.964191e-04 1.363065e-03 4.810084e-04
Al -3.163228e+00 1.776836e+00 4.882513e+00 -6.347519e-04 2.366011e-04 2.943926e-04
Al -3.175458e+00 1.771085e+00 -5.191667e+00 -1.567567e-04 3.784405e-04 -1.546155e-04
Al -3.174118e+00 1.771745e+00 -1.520062e-01 7.225307e-04 2.532256e-04 2.052791e-03
Al -1.017099e-02 -3.654318e+00 4.877959e+00 -2.379840e-04 7.139695e-05 -5.373579e-04
Al -2.066877e-02 -3.672160e+00 -5.195033e+00 5.138040e-04 9.918921e-04 -2.445299e-04
Al -2.251293e-02 -3.670981e+00 -1.359986e-01 1.233016e-03 2.239786e-03 2.914081e-03
Al -1.580803e+00 -9.379691e-01 4.877728e+00 -8.651616e-04 4.945501e-04 -3.661988e-04
Al -1.603499e+00 -9.370321e-01 -5.192590e+00 1.335037e-03 4.232609e-04 -8.184709e-04
Al -1.604571e+00 -9.420379e-01 -1.230336e-01 2.474863e-03 1.246707e-03 -1.804967e-03
N 1.547727e+00 8.668662e-01 4.286339e+00 9.289247e-04 -5.447670e-04 1.621958e-05
N 1.534143e+00 9.094656e-01 -5.806246e+00 1.263522e-03 1.955153e-03 -6.844167e-04
N 1.543112e+00 8.676463e-01 -7.348371e-01 8.768776e-04 -5.607530e-04 -3.200418e-05
N -2.074716e-02 3.583498e+00 4.283827e+00 3.252933e-04 -9.978161e-05 2.491937e-04
N -7.112021e-02 3.554655e+00 -5.801792e+00 -9.450293e-04 -5.862126e-04 -8.175951e-04
N -3.518913e-02 3.575102e+00 -7.393531e-01 4.932374e-04 3.523096e-04 4.491121e-04
N 3.129459e+00 -1.848072e+00 4.286465e+00 4.647587e-04 -2.046441e-04 6.323462e-04
N 3.157994e+00 -1.877148e+00 -5.803854e+00 2.741576e-03 -1.648602e-03 -6.628957e-04
N 3.125848e+00 -1.855941e+00 -7.342415e-01 3.548530e-04 -2.553213e-04 1.937753e-04
N -4.731418e+00 8.706766e-01 4.284756e+00 8.867997e-04 -3.481957e-04 7.816481e-04
N -4.746014e+00 8.638428e-01 -5.785790e+00 1.108709e-03 -3.008566e-04 4.244972e-04
N -4.741604e+00 8.641454e-01 -7.503738e-01 6.183906e-04 -5.655619e-04 1.204199e-03
N -6.302397e+00 3.585092e+00 4.287539e+00 -1.867979e-04 1.973745e-04 1.329448e-03
N -6.276908e+00 3.555371e+00 -5.806837e+00 9.458784e-04 -7.241799e-05 -8.674252e-04
N -6.308563e+00 3.576622e+00 -7.435379e-01 3.020943e-05 6.901535e-04 1.489118e-03
N -3.150815e+00 -1.846682e+00 4.286684e+00 2.541631e-04 -1.500544e-04 1.007450e-03
N -3.165339e+00 -1.807702e+00 -5.806211e+00 6.280158e-04 8.416559e-04 -9.596535e-04
N -3.162751e+00 -1.847462e+00 -7.389797e-01 7.072695e-04 -5.975961e-04 8.908888e-04
N -1.598635e+00 8.752848e-01 4.285927e+00 1.693831e-03 -6.749202e-04 2.155454e-04
N -1.607764e+00 8.699913e-01 -5.790049e+00 1.313198e-03 -5.233500e-04 3.752297e-04
N -1.605937e+00 8.666649e-01 -7.433461e-01 1.184722e-03 -5.664769e-04 -3.692522e-04
N -3.164712e+00 3.587341e+00 4.286684e+00 8.907733e-04 -3.682366e-04 1.110123e-03
N -3.176468e+00 3.583300e+00 -5.790096e+00 1.371562e-03 -8.278112e-04 3.748671e-04
N -3.176306e+00 3.582677e+00 -7.503813e-01 8.793183e-04 -6.997221e-05 1.114290e-03
N -1.346941e-02 -1.841382e+00 4.284830e+00 1.219486e-03 -2.828439e-04 5.254705e-04
N -6.090068e-02 -1.872220e+00 -5.810151e+00 -3.034245e-03 -8.113345e-04 3.363042e-03
N -2.413191e-02 -1.846329e+00 -6.777317e-01 7.580186e-04 -7.422333e-04 3.414275e-03
N -2.041498e-02 1.769890e+00 1.778825e+00 -8.807677e-04 3.634049e-04 -1.932665e-03
N -2.019399e-02 1.770336e+00 6.787242e+00 -1.198208e-03 2.567965e-04 -2.842607e-05
N -2.848621e-02 1.763915e+00 -3.260926e+00 -1.058517e-03 9.572193e-04 -7.816117e-05
N 3.131613e+00 -3.658563e+00 1.780598e+00 -1.230260e-03 -4.404148e-04 -1.816089e-03
N 3.132253e+00 -3.662795e+00 6.789803e+00 -9.257692e-04 3.458059e-04 7.909078e-05
N 3.122291e+00 -3.667751e+00 -3.262785e+00 -7.358417e-04 9.311536e-04 3.980574e-04
N 1.567844e+00 -9.425425e-01 1.778596e+00 -1.784346e-03 4.864660e-04 3.335945e-03
N 1.564512e+00 -9.461268e-01 6.801175e+00 -1.353496e-03 7.917917e-04 2.010256e-04
N 1.576510e+00 -9.175212e-01 -3.227042e+00 5.989809e-03 -4.544247e-03 2.434376e-03
N 3.118911e+00 1.774972e+00 1.781675e+00 -6.850362e-04 -2.492305e-04 -2.558167e-03
N 3.120105e+00 1.773345e+00 6.788909e+00 5.614771e-05 -2.616563e-04 1.794443e-04
N 3.106950e+00 1.770349e+00 -3.266175e+00 2.283508e-04 -6.476532e-04 -1.036308e-04
N 6.270053e+00 -3.654848e+00 1.777906e+00 -3.566446e-04 -8.182917e-04 -2.616988e-03
N 6.268563e+00 -3.657304e+00 6.800478e+00 8.356385e-05 -4.091184e-05 4.666499e-04
N 6.257966e+00 -3.662456e+00 -3.210294e+00 -5.777609e-05 1.694585e-05 2.887432e-03
N 4.699347e+00 -9.411795e-01 1.778290e+00 -1.015691e-03 4.358892e-04 -4.734579e-04
N 4.700528e+00 -9.398079e-01 6.789264e+00 -7.746109e-04 6.495097e-04 2.735738e-04
N 4.689000e+00 -9.485661e-01 -3.263476e+00 -1.353837e-03 4.871316e-04 -1.716102e-04
N -3.162841e+00 1.777332e+00 1.775473e+00 -8.790234e-04 6.409386e-05 -2.059699e-03
N -3.162561e+00 1.776737e+00 6.798960e+00 -6.338173e-04 4.791770e-05 3.363235e-04
N -3.173486e+00 1.770265e+00 -3.269212e+00 -8.085369e-04 -1.038812e-04 2.201606e-04
N -9.747630e-03 -3.659859e+00 1.789216e+00 -8.470086e-04 2.243841e-04 -2.321675e-03
N -8.774908e-03 -3.655752e+00 6.788914e+00 -1.205281e-04 -1.021804e-05 3.051044e-04
N -2.323858e-02 -3.703811e+00 -3.280868e+00 -1.953840e-04 -1.949265e-03 -7.106074e-04
N -1.585690e+00 -9.362520e-01 1.785443e+00 -9.958650e-04 8.234208e-05 9.721285e-04
N -1.579888e+00 -9.372044e-01 6.789112e+00 -9.895696e-04 5.907751e-04 3.320862e-04
N -1.631568e+00 -9.255366e-01 -3.278568e+00 -3.123000e-03 1.419415e-03 -1.336035e-03
