108
Energy=-1.718378e+06 Lattice="9.549102e+00 0.000000e+00 0.000000e+00 -4.775405e+00 8.270272e+00 0.000000e+00 -4.725987e-04 -1.329803e-03 1.543780e+01" Stress="-2.918636e-04 -4.884037e-05 2.161708e-05 -4.999644e-05 -2.026460e-04 5.378761e-05 -3.704353e-06 4.964991e-05 -8.269835e-04" Properties=species:S:1:pos:R:3:forces:R:3 Config_type=AlGaN_super3_28_2_36.xyz
Al 1.567041e+00 8.721359e-01 2.414320e+00 1.797132e-05 -5.557817e-05 1.642714e-05
Al 1.560051e+00 8.792020e-01 7.600067e+00 1.434740e-05 2.243393e-06 1.592246e-05
Al 1.563927e+00 8.731451e-01 -2.745028e+00 -6.414926e-06 -3.324872e-05 -1.815471e-05
Al -3.311742e-02 3.631699e+00 2.427730e+00 -2.005284e-04 1.048768e-04 -3.680826e-05
Al -3.624075e-02 3.630237e+00 7.583608e+00 -4.244910e-07 4.847913e-06 2.978992e-05
Ga -9.862257e-03 3.628246e+00 -2.735729e+00 -1.710561e-05 1.325626e-05 1.888542e-05
Al 3.154963e+00 -1.874008e+00 2.418737e+00 -3.995496e-05 -4.321009e-05 -3.649312e-05
Ga 3.138464e+00 -1.896887e+00 7.577580e+00 -3.594431e-06 6.022905e-06 2.509034e-05
Ga 3.135331e+00 -1.872733e+00 -2.719009e+00 6.895139e-06 -1.685224e-05 4.917435e-06
Al -4.796630e+00 8.763974e-01 2.424685e+00 3.494222e-05 1.820216e-05 2.004497e-05
Ga -4.802741e+00 8.945327e-01 7.570833e+00 1.845015e-05 -7.957586e-06 1.043955e-05
Ga -4.814715e+00 8.889943e-01 -2.708864e+00 2.019970e-05 -7.164283e-06 2.413597e-05
Ga -6.389048e+00 3.625822e+00 2.437314e+00 5.268146e-05 -2.495973e-06 2.341014e-05
Ga -6.385643e+00 3.633741e+00 7.577841e+00 1.131566e-05 1.260550e-05 2.518121e-05
Al -6.400692e+00 3.635970e+00 -2.736977e+00 9.612796e-06 1.201417e-05 1.122927e-05
Ga -3.211038e+00 -1.870449e+00 2.405217e+00 1.298835e-05 2.758320e-05 3.091090e-05
Ga -3.194681e+00 -1.885058e+00 7.570538e+00 -1.471671e-05 1.143924e-05 2.594037e-05
Ga -3.191423e+00 -1.895729e+00 -2.689361e+00 2.458514e-06 7.317746e-06 2.484295e-05
Al -1.614345e+00 8.832981e-01 2.443763e+00 -1.026056e-05 1.735763e-05 3.775344e-05
Ga -1.604233e+00 8.849728e-01 7.551829e+00 1.691758e-05 3.243376e-08 7.816897e-07
Ga -1.592917e+00 8.764228e-01 -2.717274e+00 2.304124e-05 -1.390566e-06 3.783091e-05
Al -3.193785e+00 3.632723e+00 2.460490e+00 -1.404347e-04 -2.062344e-04 -6.772458e-05
Al -3.195900e+00 3.645462e+00 7.535333e+00 -5.071878e-05 -2.991477e-05 1.356687e-04
Ga -3.210194e+00 3.647668e+00 -2.719890e+00 -1.754060e-07 -7.940641e-06 3.963639e-05
Ga -1.149572e-02 -1.865293e+00 2.428117e+00 2.680950e-05 7.753952e-06 1.036530e-05
Al -1.453473e-02 -1.877958e+00 7.553526e+00 -2.980161e-06 5.686883e-05 5.247222e-05
Al -1.224235e-02 -1.867798e+00 -2.705628e+00 -6.034495e-06 -9.452480e-06 4.629746e-06
Ga -2.923229e-02 1.801804e+00 4.992342e+00 -6.954287e-06 -2.220913e-05 -6.724669e-06
Al -1.648172e-03 1.808624e+00 -5.312163e+00 -3.078960e-06 1.328330e-05 2.343882e-05
Ga -1.264628e-02 1.786897e+00 -1.240502e-01 -1.393562e-05 2.635831e-05 3.245672e-05
Al 3.152706e+00 -3.725705e+00 4.980080e+00 2.109834e-05 8.191636e-05 -1.552405e-04
Al 3.167041e+00 -3.721958e+00 -5.317610e+00 -9.686022e-06 -1.291436e-06 7.439230e-06
Ga 3.169729e+00 -3.700744e+00 -1.088725e-01 -9.254449e-06 1.361671e-05 7.352997e-05
Ga 1.562921e+00 -9.639097e-01 5.001911e+00 -9.881118e-06 1.082506e-06 1.490162e-05
Al 1.558914e+00 -9.480328e-01 -5.303202e+00 -3.825998e-05 -3.314441e-05 2.658257e-05
Al 1.567567e+00 -9.513266e-01 -1.456072e-01 -3.205868e-05 -1.995499e-05 7.375601e-05
Ga 3.165350e+00 1.793246e+00 4.991779e+00 1.248533e-05 -1.188081e-05 2.069366e-05
Al 3.133066e+00 1.798926e+00 -5.281420e+00 -9.013293e-07 8.310717e-06 3.003086e-05
Ga 3.144666e+00 1.791673e+00 -1.473488e-01 2.116592e-05 8.494553e-06 2.768446e-05
Ga 6.336333e+00 -3.713667e+00 5.003620e+00 1.431713e-05 7.136337e-06 3.025806e-05
Al 6.332904e+00 -3.733245e+00 -5.298129e+00 -3.704981e-06 -1.650340e-06 2.401892e-05
Al 6.345413e+00 -3.710787e+00 -1.411159e-01 -9.371468e-06 3.429888e-06 1.991546e-05
Ga 4.753576e+00 -9.567053e-01 4.978434e+00 -1.987133e-05 1.564889e-05 2.025804e-05
Ga 4.740593e+00 -9.675972e-01 -5.289558e+00 -7.296031e-06 -5.974358e-06 1.507469e-05
Al 4.748254e+00 -9.657773e-01 -1.233523e-01 -2.301582e-06 8.093822e-06 3.181393e-05
Al -3.202748e+00 1.807849e+00 4.969311e+00 -3.741485e-06 -5.392900e-05 -1.190654e-06
Ga -3.200106e+00 1.815605e+00 -5.308482e+00 1.064838e-05 1.067279e-05 2.716651e-05
Ga -3.201878e+00 1.785706e+00 -1.020742e-01 -6.446075e-07 2.192916e-05 6.173174e-05
Al -3.084755e-03 -3.712922e+00 5.006965e+00 -3.247111e-06 4.694921e-06 5.182747e-05
Ga -1.675207e-02 -3.704806e+00 -5.297121e+00 9.249428e-06 7.372816e-06 2.259398e-05
Ga -3.392448e-02 -3.699318e+00 -1.531652e-01 3.006856e-05 -4.281121e-06 3.901298e-05
Al -1.608760e+00 -9.564573e-01 4.994540e+00 -1.184971e-05 4.236164e-06 4.418438e-06
Ga -1.595107e+00 -9.654097e-01 -5.287130e+00 -9.076543e-06 -5.862472e-06 2.105950e-05
Al -1.608231e+00 -9.629931e-01 -1.444438e-01 -2.665582e-06 1.554108e-06 2.993899e-05
N 1.566601e+00 8.745037e-01 4.316480e+00 -1.817954e-05 1.134577e-06 -9.323678e-06
N 1.570976e+00 8.787232e-01 -5.911458e+00 3.890837e-06 3.303396e-06 -1.685018e-05
N 1.563713e+00 8.305189e-01 -8.207398e-01 -7.248993e-06 1.471822e-05 -4.223198e-05
N -6.204531e-02 3.659597e+00 4.336893e+00 1.583484e-05 -1.208956e-05 6.565339e-06
N -2.609010e-02 3.637806e+00 -5.921601e+00 8.997060e-07 -1.094637e-06 -1.514052e-05
N 1.409979e-02 3.656262e+00 -7.532242e-01 1.617706e-05 -6.825456e-06 -3.304738e-05
N 3.154183e+00 -1.923313e+00 4.340190e+00 -3.609624e-07 -5.200113e-05 2.787796e-05
N 3.111586e+00 -1.902830e+00 -5.880754e+00 5.151810e-06 6.793907e-06 -2.047802e-07
N 3.155990e+00 -1.832288e+00 -7.300987e-01 1.808614e-05 1.072014e-05 -5.884024e-05
N -4.758004e+00 9.022506e-01 4.336944e+00 5.564323e-05 2.939670e-05 1.558471e-05
N -4.843330e+00 9.083053e-01 -5.892252e+00 4.465524e-06 7.609168e-06 -3.369467e-05
N -4.796320e+00 8.341790e-01 -7.345932e-01 -1.021620e-06 -1.213761e-05 -1.850857e-05
N -6.345456e+00 3.664030e+00 4.408987e+00 -1.868756e-05 -1.564155e-06 -2.540034e-05
N -6.424907e+00 3.612024e+00 -5.877702e+00 -1.617795e-05 -2.173719e-06 -1.436883e-05
N -6.435319e+00 3.657660e+00 -8.097253e-01 -1.159739e-05 5.081645e-06 -1.795772e-05
N -3.160596e+00 -1.855847e+00 4.379520e+00 -1.436848e-06 -1.454913e-05 -2.257078e-05
N -3.200469e+00 -1.924568e+00 -5.895451e+00 -1.108180e-05 1.216657e-06 -2.130647e-05
N -3.206281e+00 -1.879960e+00 -6.934585e-01 8.395518e-06 3.042345e-06 -1.380309e-05
N -1.651376e+00 8.514613e-01 4.369350e+00 -1.193231e-05 1.617434e-05 -3.000079e-05
N -1.570711e+00 9.011055e-01 -5.908627e+00 1.470372e-05 -1.145053e-05 -3.689058e-05
N -1.611734e+00 8.379027e-01 -7.433947e-01 2.984504e-05 -1.910387e-05 -2.534995e-05
N -3.207039e+00 3.640280e+00 4.384654e+00 2.568783e-05 1.076839e-05 -1.293219e-06
N -3.166763e+00 3.665442e+00 -5.978529e+00 3.269386e-07 -2.011313e-05 -6.237653e-05
N -3.198453e+00 3.634262e+00 -7.549878e-01 -3.773526e-06 -1.504132e-05 -3.530923e-05
N -6.195229e-02 -1.901233e+00 4.406999e+00 -6.159389e-06 -1.974374e-05 -1.476756e-05
N 1.811511e-02 -1.854479e+00 -5.969579e+00 5.107918e-05 3.753092e-06 2.987497e-07
N -1.593954e-02 -1.824468e+00 -7.791685e-01 5.504871e-06 9.443152e-06 -4.521025e-05
N -2.407668e-02 1.796014e+00 1.865190e+00 2.257740e-05 -3.219808e-05 -1.207256e-05
N 2.581094e-02 1.825056e+00 6.979163e+00 -1.310737e-05 1.215403e-05 -7.674165e-06
N 2.031853e-02 1.776688e+00 -3.392492e+00 -5.950517e-07 1.251739e-05 -1.575804e-05
N 3.156935e+00 -3.715948e+00 1.871747e+00 2.004364e-04 4.512298e-05 6.407240e-05
N 3.168520e+00 -3.764669e+00 6.911885e+00 5.689192e-05 2.198416e-05 -2.964608e-05
N 3.162569e+00 -3.716759e+00 -3.403820e+00 6.295749e-07 1.270632e-05 -3.485332e-05
N 1.607533e+00 -9.336017e-01 1.778570e+00 2.495727e-05 -1.466218e-06 -8.647096e-05
N 1.530506e+00 -9.255963e-01 6.981090e+00 -7.252901e-06 -6.538925e-06 -2.862199e-05
N 1.520555e+00 -9.363297e-01 -3.374387e+00 -1.164958e-06 7.401443e-05 -5.935623e-06
N 3.157204e+00 1.751960e+00 1.833575e+00 -3.676068e-05 7.921394e-06 -4.723308e-05
N 3.109974e+00 1.770078e+00 6.962245e+00 1.336162e-06 -9.507773e-06 -2.788616e-05
N 3.114174e+00 1.820953e+00 -3.354319e+00 -1.953236e-06 3.774420e-06 -7.577426e-06
N 6.304638e+00 -3.746665e+00 1.773709e+00 2.811563e-05 -7.203873e-06 -1.503276e-05
N 6.296648e+00 -3.746110e+00 6.972166e+00 -6.644094e-06 -8.342864e-06 -3.103680e-05
N 6.380668e+00 -3.735425e+00 -3.383862e+00 5.964052e-06 -3.301155e-07 -1.659786e-05
N 4.706271e+00 -9.350106e-01 1.796979e+00 -1.694063e-05 -3.016029e-05 -2.034958e-05
N 4.744578e+00 -9.603381e-01 6.950396e+00 -2.025956e-05 -1.507211e-05 -3.186795e-05
N 4.755432e+00 -9.640068e-01 -3.323708e+00 -1.820482e-05 1.020093e-05 -2.963951e-05
N -3.201973e+00 1.802065e+00 1.883653e+00 1.015792e-05 8.321888e-05 4.015342e-05
N -3.208094e+00 1.844135e+00 6.895504e+00 -5.697742e-06 6.032743e-06 1.856038e-05
N -3.204291e+00 1.799795e+00 -3.342552e+00 -5.887539e-06 -8.946374e-07 -3.418097e-05
N 2.232135e-02 -3.739370e+00 1.822089e+00 -5.877957e-06 1.042008e-06 1.121448e-05
N 2.025820e-02 -3.691947e+00 6.933246e+00 8.330971e-07 -1.963499e-05 -1.707196e-05
N -6.301485e-02 -3.683177e+00 -3.304700e+00 -1.252857e-05 -2.116705e-06 -2.295710e-05
N -1.606545e+00 -9.071233e-01 1.768390e+00 -2.047000e-06 -1.339782e-05 -3.376367e-05
N -1.572519e+00 -9.813719e-01 6.909651e+00 -2.302229e-05 -3.608718e-05 -3.580710e-05
N -1.571050e+00 -9.877254e-01 -3.314058e+00 -1.852898e-05 -1.641309e-06 -3.141801e-05
