108
Energy=-1.397949e+06 Lattice="9.510431e+00 0.000000e+00 0.000000e+00 -4.755836e+00 8.234014e+00 0.000000e+00 -7.932731e-04 3.751604e-03 1.534995e+01" Stress="-2.432310e-04 -4.730626e-05 6.224861e-05 -5.530364e-05 -4.574138e-04 -3.182091e-05 5.655615e-05 -2.495043e-05 -1.659596e-04" Properties=species:S:1:pos:R:3:forces:R:3 Config_type=AlGaN_super3_21_1_60.xyz
Al 1.567510e+00 8.694281e-01 2.390789e+00 -2.731918e-05 -1.916616e-06 4.429932e-05
Al 1.547896e+00 8.841518e-01 7.538283e+00 5.531479e-05 9.376847e-06 5.706597e-05
Al 1.581532e+00 8.686647e-01 -2.695740e+00 -9.982379e-05 1.625929e-04 1.055954e-04
Al -3.294389e-02 3.627387e+00 2.416448e+00 -7.253122e-05 4.511259e-05 3.902401e-05
Al -1.860955e-02 3.611085e+00 7.506073e+00 -3.503432e-05 -5.624959e-05 3.384215e-05
Ga -2.433300e-02 3.624270e+00 -2.692959e+00 -2.048106e-05 1.048058e-05 -9.015660e-06
Al 3.147797e+00 -1.873442e+00 2.369499e+00 3.741348e-05 -3.855377e-05 -1.632338e-05
Ga 3.145202e+00 -1.872267e+00 7.522527e+00 -2.056140e-05 4.309974e-06 -2.795556e-06
Al 3.143661e+00 -1.860839e+00 -2.664094e+00 1.538404e-05 -3.690419e-05 2.101361e-06
Al -4.778736e+00 8.728768e-01 2.366221e+00 2.608616e-04 -3.041703e-05 -2.774418e-05
Ga -4.774850e+00 8.814902e-01 7.540681e+00 9.268843e-05 2.958442e-06 4.540358e-05
Al -4.785464e+00 8.798400e-01 -2.675065e+00 -1.109212e-04 1.873075e-05 5.236144e-05
Ga -6.364091e+00 3.616448e+00 2.414805e+00 2.128379e-06 -1.760882e-05 -1.167341e-05
Ga -6.375529e+00 3.622868e+00 7.534053e+00 1.881898e-05 2.993516e-06 3.966796e-05
Al -6.362064e+00 3.604845e+00 -2.712433e+00 1.814567e-04 1.052026e-04 -1.022795e-04
Al -3.200561e+00 -1.865756e+00 2.388213e+00 -2.377105e-05 5.899405e-05 -2.079933e-07
Ga -3.191616e+00 -1.878228e+00 7.541950e+00 -8.353097e-06 2.023812e-05 1.453195e-05
Al -3.190259e+00 -1.858937e+00 -2.694535e+00 4.181300e-05 -1.812265e-04 -4.891312e-05
Ga -1.613438e+00 8.800198e-01 2.403762e+00 -3.557409e-06 -1.712614e-05 3.073586e-05
Al -1.597792e+00 8.896730e-01 7.506231e+00 1.096245e-04 -4.279224e-05 -2.030550e-05
Al -1.621104e+00 8.664379e-01 -2.675936e+00 5.358568e-05 -1.747795e-05 6.618453e-05
Al -3.183444e+00 3.621589e+00 2.408182e+00 -2.492360e-05 -9.902431e-05 -2.440913e-05
Ga -3.184439e+00 3.617336e+00 7.506061e+00 1.281581e-05 -5.091617e-05 1.349929e-06
Al -3.195424e+00 3.613887e+00 -2.681356e+00 5.711604e-05 4.804147e-06 2.692664e-04
Al -1.429968e-02 -1.864857e+00 2.382051e+00 2.650286e-05 5.786232e-05 6.921081e-05
Ga -1.948094e-02 -1.859610e+00 7.560421e+00 5.836657e-05 -9.139821e-05 2.149093e-05
Ga -2.254346e-02 -1.858232e+00 -2.707405e+00 -2.882354e-05 8.469019e-06 1.460460e-05
Al -2.210941e-02 1.808672e+00 4.965551e+00 -5.626214e-05 -5.123160e-06 -2.581439e-05
Ga -1.343962e-02 1.775975e+00 -5.262731e+00 -2.020831e-05 6.620282e-05 2.341553e-05
Ga -2.004010e-02 1.776619e+00 -1.465858e-01 -3.577404e-05 1.438558e-05 -1.570959e-05
Al 3.152598e+00 -3.715016e+00 4.931420e+00 8.179201e-06 -2.652171e-05 -8.767366e-05
Ga 3.143102e+00 -3.692893e+00 -5.245869e+00 -4.010491e-05 7.232820e-05 6.300425e-06
Al 3.135588e+00 -3.693061e+00 -1.312668e-01 -1.390754e-04 3.355860e-06 1.718711e-05
Ga 1.557104e+00 -9.576210e-01 4.937561e+00 -3.296349e-05 7.569132e-06 -6.997521e-06
Al 1.562090e+00 -9.459661e-01 -5.239261e+00 -4.689344e-05 6.408017e-05 -6.640042e-07
Al 1.575033e+00 -9.492763e-01 -1.387334e-01 -6.450189e-06 7.949159e-06 -1.940905e-05
Ga 3.145559e+00 1.793828e+00 4.953697e+00 6.110895e-05 -1.197085e-05 4.971027e-05
Al 3.136343e+00 1.793787e+00 -5.237243e+00 -2.754566e-04 -4.259721e-06 -4.440100e-06
Al 3.153962e+00 1.772028e+00 -1.559855e-01 1.740597e-04 6.548012e-05 1.501046e-04
Al 6.303751e+00 -3.703004e+00 4.945747e+00 -3.352989e-05 4.364386e-05 -1.262468e-04
Al 6.332773e+00 -3.701516e+00 -5.241054e+00 7.341832e-05 -4.582232e-05 -7.257460e-05
Ga 6.317458e+00 -3.687707e+00 -1.428854e-01 2.846899e-05 -7.512237e-06 -1.517305e-05
Ga 4.737587e+00 -9.585908e-01 4.924216e+00 -3.276936e-05 -2.810382e-06 -3.077663e-05
Ga 4.730093e+00 -9.583152e-01 -5.211301e+00 -2.123449e-05 -5.508141e-05 8.628997e-06
Al 4.730687e+00 -9.474078e-01 -1.584923e-01 -5.044021e-05 7.905254e-05 2.050345e-06
Al -3.189735e+00 1.805509e+00 4.944776e+00 -4.025198e-06 7.656744e-05 -8.997116e-05
Ga -3.192749e+00 1.787967e+00 -5.227193e+00 4.963986e-05 9.828782e-06 4.200014e-05
Al -3.200798e+00 1.788373e+00 -1.595904e-01 3.781683e-06 -5.217475e-05 -8.518267e-05
Al -1.203803e-02 -3.697928e+00 4.934043e+00 5.372527e-05 -5.322172e-05 -1.023464e-05
Al -3.506365e-02 -3.699158e+00 -5.225942e+00 -3.046224e-05 2.899619e-05 1.681953e-05
Ga -1.056361e-02 -3.704865e+00 -1.489816e-01 6.255700e-05 -4.117480e-05 -2.265512e-06
Ga -1.605564e+00 -9.601651e-01 4.954393e+00 2.628473e-07 -4.288429e-05 1.708292e-05
Al -1.605595e+00 -9.554421e-01 -5.247316e+00 -3.028967e-05 -4.204528e-05 1.435912e-05
Al -1.617446e+00 -9.492345e-01 -1.434322e-01 -2.213089e-04 2.297116e-05 -6.532717e-05
N 1.519210e+00 9.020841e-01 4.300371e+00 7.597340e-05 -3.010170e-05 -3.468517e-05
N 1.604649e+00 8.507788e-01 -5.889400e+00 1.372302e-04 3.047210e-05 3.138137e-06
N 1.608502e+00 8.471426e-01 -7.802210e-01 -1.661391e-04 -1.105330e-04 -1.884824e-04
N -2.378879e-02 3.616990e+00 4.340673e+00 -2.465014e-05 -1.754966e-05 -5.405390e-06
N 1.949775e-02 3.644464e+00 -5.910566e+00 -1.633920e-05 8.868219e-07 -5.191365e-05
N -6.582754e-02 3.645230e+00 -7.349835e-01 6.083745e-05 -6.168275e-05 -3.119846e-05
N 3.145767e+00 -1.918755e+00 4.285510e+00 -7.018976e-06 2.510495e-05 -1.285543e-05
N 3.108557e+00 -1.844892e+00 -5.858075e+00 1.361046e-05 -5.126156e-06 -2.924701e-05
N 3.143344e+00 -1.871491e+00 -7.371874e-01 -2.128900e-05 -3.405381e-05 -1.404047e-05
N -4.735980e+00 9.041618e-01 4.284424e+00 -4.602839e-05 7.486585e-06 -4.043378e-05
N -4.817441e+00 8.973246e-01 -5.836550e+00 8.505342e-05 -1.106867e-05 -3.643445e-05
N -4.780466e+00 8.770172e-01 -7.540088e-01 1.620392e-05 1.639548e-05 -7.955936e-07
N -6.364370e+00 3.666789e+00 4.383648e+00 -3.152704e-05 -1.387172e-05 -1.341710e-05
N -6.362374e+00 3.619538e+00 -5.817635e+00 -1.493760e-05 2.646724e-05 4.482761e-06
N -6.364775e+00 3.569735e+00 -7.953501e-01 -2.481028e-05 -1.431233e-05 -6.975006e-05
N -3.188563e+00 -1.915283e+00 4.295563e+00 2.298552e-05 1.084739e-05 2.943495e-05
N -3.155539e+00 -1.895509e+00 -5.826773e+00 2.523255e-05 2.808206e-05 -1.509766e-05
N -3.189699e+00 -1.821538e+00 -7.786915e-01 1.715715e-04 2.272193e-05 8.097866e-05
N -1.605351e+00 9.251703e-01 4.380113e+00 1.179566e-04 -1.152445e-05 -3.139611e-05
N -1.612733e+00 8.324498e-01 -5.920975e+00 -2.503482e-05 -8.825954e-06 -6.024161e-05
N -1.649150e+00 8.482918e-01 -7.618760e-01 -9.882217e-05 8.278337e-05 1.106077e-04
N -3.189906e+00 3.618820e+00 4.336209e+00 -1.088287e-05 -3.766429e-05 -2.924044e-05
N -3.238654e+00 3.642005e+00 -5.865667e+00 -1.121923e-05 -5.596671e-05 -4.721536e-05
N -3.149196e+00 3.597837e+00 -7.720508e-01 1.182421e-04 4.041177e-05 -1.658476e-04
N -2.382073e-02 -1.911145e+00 4.290197e+00 7.002277e-05 -2.867974e-05 1.086678e-06
N -2.047105e-02 -1.872162e+00 -5.793561e+00 4.458596e-05 -2.256948e-05 1.780399e-05
N -2.203153e-02 -1.816432e+00 -7.272247e-01 1.928341e-04 -2.959628e-05 -3.109060e-05
N 1.842243e-02 1.815343e+00 1.822047e+00 5.912626e-05 1.633954e-05 -4.840606e-05
N -1.665848e-02 1.792777e+00 6.907305e+00 -5.505241e-05 5.449886e-05 1.490384e-05
N -2.466365e-02 1.735648e+00 -3.274762e+00 8.520646e-05 -5.147747e-05 2.000155e-05
N 3.145239e+00 -3.705156e+00 1.791999e+00 -3.949050e-05 5.613195e-07 1.609486e-06
N 3.191884e+00 -3.721536e+00 6.854525e+00 1.662194e-05 2.264903e-05 1.156507e-04
N 3.103487e+00 -3.670558e+00 -3.272935e+00 4.091560e-05 3.583876e-05 1.420752e-05
N 1.564733e+00 -9.499820e-01 1.782666e+00 -2.580849e-05 2.843980e-05 7.741979e-07
N 1.558878e+00 -9.046908e-01 6.914623e+00 -1.377117e-04 8.853981e-05 -1.709927e-05
N 1.611317e+00 -9.292137e-01 -3.323749e+00 -2.890667e-06 -2.425137e-05 -5.068446e-06
N 3.144446e+00 1.745797e+00 1.762528e+00 -8.321801e-05 -3.708539e-05 -2.268704e-05
N 3.105382e+00 1.765313e+00 6.925879e+00 -4.091445e-05 -1.629303e-05 -1.237719e-05
N 3.146420e+00 1.784818e+00 -3.312436e+00 -1.127014e-05 3.373749e-05 2.610912e-05
N 6.276056e+00 -3.677950e+00 1.825228e+00 4.386171e-05 -1.328931e-04 -4.929628e-05
N 6.275947e+00 -3.718953e+00 6.863924e+00 2.672696e-05 2.878669e-05 6.380820e-05
N 6.357641e+00 -3.674443e+00 -3.322078e+00 -3.911115e-05 1.399423e-04 9.783992e-05
N 4.734055e+00 -9.544094e-01 1.771381e+00 -1.811765e-05 2.219909e-05 1.585009e-05
N 4.736397e+00 -9.516448e-01 6.893740e+00 -6.185369e-05 8.445628e-06 -3.678307e-05
N 4.727023e+00 -9.542264e-01 -3.228329e+00 3.967966e-05 -3.898793e-05 9.947644e-07
N -3.232417e+00 1.819801e+00 1.758103e+00 -4.181725e-05 1.138620e-04 1.205012e-04
N -3.158140e+00 1.767201e+00 6.861798e+00 -2.667253e-05 -3.919415e-06 8.296621e-05
N -3.192760e+00 1.788206e+00 -3.243426e+00 5.119512e-05 -8.330016e-06 -4.999996e-05
N 2.087126e-02 -3.681530e+00 1.822030e+00 1.038703e-04 -1.727913e-04 -3.339391e-05
N -2.414140e-02 -3.688732e+00 6.851151e+00 -2.595796e-05 4.450025e-05 -3.763815e-06
N -1.936342e-02 -3.747754e+00 -3.309572e+00 -2.116853e-04 -2.942605e-05 2.306853e-05
N -1.610240e+00 -9.984209e-01 1.772098e+00 -1.707100e-04 4.956059e-05 -4.314991e-05
N -1.605108e+00 -9.127641e-01 6.927197e+00 -8.842325e-05 1.468557e-05 4.242059e-05
N -1.652223e+00 -9.225142e-01 -3.332283e+00 -2.588325e-05 1.201261e-05 1.030727e-05
