108
Energy=-8.486435e+05 Lattice="9.448098e+00 0.000000e+00 0.000000e+00 -4.727389e+00 8.177459e+00 0.000000e+00 -1.287708e-02 -7.867304e-03 1.519581e+01" Stress="1.295755e-03 -2.306006e-04 -5.759724e-04 -2.333092e-04 4.392532e-04 -3.348474e-04 -5.903526e-04 -3.392189e-04 1.967861e-03" Properties=species:S:1:pos:R:3:forces:R:3 Config_type=AlGaN_super3_9_1_54.xyz
Al 1.550237e+00 8.689283e-01 2.422738e+00 -3.434016e-04 -2.138105e-04 3.510251e-04
Al 1.550495e+00 8.730418e-01 7.446520e+00 -3.387427e-05 7.527258e-05 4.943637e-06
Al 1.553150e+00 8.727992e-01 -2.719669e+00 9.226836e-05 -4.953321e-06 -5.053575e-04
Al -9.808523e-03 3.597622e+00 2.419345e+00 3.708738e-05 3.084754e-05 1.871741e-05
Al -3.077476e-02 3.590206e+00 7.445363e+00 -3.915830e-05 -1.531747e-05 -2.818090e-05
Al -2.001928e-02 3.590898e+00 -2.715395e+00 -9.750847e-06 -5.635130e-05 -6.867345e-05
Al 3.135116e+00 -1.846122e+00 2.414697e+00 4.143039e-05 -5.104412e-05 -1.096962e-05
Al 3.130099e+00 -1.861069e+00 7.447570e+00 1.012255e-04 -3.834814e-05 4.339118e-05
Al 3.129022e+00 -1.849816e+00 -2.710821e+00 -4.314061e-05 -2.448804e-05 -1.173541e-04
Al -4.746312e+00 8.601767e-01 2.402934e+00 -3.154288e-04 -2.843637e-04 2.372243e-04
Al -4.759715e+00 8.635351e-01 7.435501e+00 8.312872e-05 2.326277e-05 -1.586267e-04
Al -4.752279e+00 8.694313e-01 -2.689672e+00 5.840808e-05 2.072547e-04 -8.023504e-06
Al -6.338155e+00 3.598067e+00 2.391147e+00 -5.008369e-04 -3.372574e-04 2.410083e-04
Al -6.340275e+00 3.578767e+00 7.462169e+00 -7.553835e-06 -3.189956e-05 -7.718095e-05
Al -6.319169e+00 3.594038e+00 -2.700904e+00 6.821501e-05 4.837807e-06 1.900924e-06
Al -3.173980e+00 -1.859388e+00 2.381006e+00 -9.488791e-05 -5.443273e-05 -5.102911e-05
Al -3.184407e+00 -1.859238e+00 7.446758e+00 -5.898904e-06 4.838981e-05 -1.067879e-06
Ga -3.172562e+00 -1.853734e+00 -2.679280e+00 -2.406518e-05 -5.053804e-06 -3.962084e-05
Al -1.602201e+00 8.605814e-01 2.400240e+00 1.810336e-04 -2.856970e-04 3.054358e-04
Al -1.603701e+00 8.685598e-01 7.437800e+00 2.226795e-05 3.024132e-05 -5.918371e-05
Al -1.587952e+00 8.751699e-01 -2.684859e+00 1.637605e-04 -3.592915e-04 -3.506121e-04
Ga -3.175276e+00 3.585993e+00 2.390590e+00 -1.928703e-06 3.793618e-05 -6.746606e-05
Al -3.168578e+00 3.585704e+00 7.453328e+00 2.032749e-04 -1.385570e-04 2.283839e-05
Al -3.175558e+00 3.601667e+00 -2.685929e+00 4.854087e-06 -1.209087e-04 -2.556187e-05
Al -3.247064e-02 -1.848788e+00 2.393005e+00 4.360374e-05 -6.260636e-06 1.573094e-04
Ga -2.917867e-02 -1.850499e+00 7.467616e+00 -6.809545e-05 1.026766e-05 -7.254066e-05
Al -1.568087e-02 -1.855189e+00 -2.703484e+00 6.095462e-05 -1.036278e-04 -2.316594e-04
Al -2.904713e-02 1.775270e+00 4.922723e+00 4.205141e-05 -7.144742e-06 -1.660586e-05
Al -1.324980e-02 1.779606e+00 -5.228945e+00 -1.957959e-05 -7.176117e-06 -3.773222e-05
Ga -2.890160e-02 1.781145e+00 -1.393096e-01 4.127567e-06 1.346836e-04 7.872387e-05
Al 3.138715e+00 -3.671895e+00 4.934697e+00 2.114014e-04 4.745593e-05 8.054790e-05
Al 3.137178e+00 -3.664375e+00 -5.221551e+00 -3.775220e-05 4.875791e-05 -3.534134e-05
Ga 3.139857e+00 -3.667909e+00 -1.561245e-01 -3.140490e-05 -2.636730e-05 -4.243492e-05
Al 1.556491e+00 -9.418406e-01 4.919229e+00 -9.170827e-05 1.056189e-05 -1.621807e-04
Al 1.564073e+00 -9.425477e-01 -5.213372e+00 2.539197e-04 9.969942e-05 1.433919e-04
Ga 1.551604e+00 -9.545844e-01 -1.480012e-01 -6.549915e-05 -1.356977e-05 3.918607e-05
Al 3.117296e+00 1.771213e+00 4.921185e+00 -9.567598e-06 -2.168189e-04 1.451244e-04
Al 3.123765e+00 1.779803e+00 -5.221209e+00 4.421410e-05 -3.357954e-05 -7.155102e-05
Ga 3.138664e+00 1.784852e+00 -1.456309e-01 -8.669607e-06 -7.322291e-06 8.178436e-06
Al 6.267026e+00 -3.673249e+00 4.928148e+00 3.199072e-05 -7.571361e-06 4.354993e-05
Al 6.282019e+00 -3.673116e+00 -5.236019e+00 -6.284385e-05 2.705980e-05 -1.073753e-04
Al 6.286472e+00 -3.666195e+00 -1.405804e-01 -6.499868e-04 -1.934491e-04 1.242927e-04
Al 4.701754e+00 -9.525106e-01 4.921877e+00 -6.989381e-05 2.917362e-05 4.745932e-07
Al 4.700453e+00 -9.496241e-01 -5.237987e+00 2.325378e-05 1.575242e-07 -2.474867e-04
Al 4.712378e+00 -9.438856e-01 -1.323816e-01 -3.071972e-04 2.033731e-04 4.145549e-04
Al -3.173349e+00 1.761196e+00 4.939514e+00 2.742113e-05 -3.689594e-04 2.258457e-04
Ga -3.168152e+00 1.777856e+00 -5.218138e+00 8.268221e-05 -5.037140e-05 -2.150238e-05
Al -3.177242e+00 1.763602e+00 -1.629038e-01 1.799045e-04 1.390150e-04 -2.472774e-04
Ga -3.368920e-02 -3.677599e+00 4.932561e+00 -1.041717e-04 9.669428e-05 -1.092618e-05
Al -2.086860e-02 -3.672142e+00 -5.212095e+00 9.007125e-05 -1.592102e-05 -4.758377e-07
Al -3.608246e-02 -3.668044e+00 -1.585227e-01 1.182779e-04 6.142022e-05 -3.095790e-04
Al -1.612339e+00 -9.429328e-01 4.909063e+00 -4.477915e-05 -3.086147e-05 2.247571e-04
Al -1.592646e+00 -9.455352e-01 -5.215163e+00 -9.505155e-05 2.379442e-04 5.661805e-05
Al -1.600709e+00 -9.499006e-01 -1.390280e-01 -2.801468e-04 -1.080012e-04 2.248883e-05
N 1.546182e+00 8.692708e-01 4.333149e+00 6.217189e-05 -4.313310e-05 -9.324249e-07
N 1.556986e+00 8.716490e-01 -5.824069e+00 5.759734e-05 2.854064e-05 -1.579810e-05
N 1.552142e+00 8.723638e-01 -8.168009e-01 5.360696e-05 -1.551332e-05 5.413950e-04
N -2.481560e-02 3.595129e+00 4.335414e+00 6.081622e-05 4.235395e-05 2.873441e-05
N -2.217484e-02 3.597263e+00 -5.828827e+00 -2.095816e-05 3.485289e-07 2.807370e-05
N 2.385618e-02 3.618326e+00 -8.048883e-01 1.351617e-04 1.106981e-04 2.103690e-04
N 3.127580e+00 -1.858253e+00 4.329778e+00 9.234982e-06 5.376845e-06 -1.091528e-05
N 3.130118e+00 -1.855231e+00 -5.828565e+00 1.217231e-06 4.910900e-05 2.843305e-05
N 3.175171e+00 -1.825868e+00 -8.008171e-01 -1.917246e-04 -9.266075e-05 1.255832e-05
N -4.748141e+00 8.669291e-01 4.327242e+00 1.162909e-04 1.826798e-05 2.170640e-05
N -4.785660e+00 8.509158e-01 -5.850299e+00 -2.803170e-05 4.063230e-05 2.244721e-04
N -4.711533e+00 8.396354e-01 -7.753417e-01 3.739569e-05 1.619846e-04 -3.649796e-05
N -6.372863e+00 3.571157e+00 4.302115e+00 -2.966352e-05 3.602058e-04 -3.527334e-04
N -6.319017e+00 3.594127e+00 -5.818851e+00 -4.288155e-06 5.150235e-05 7.327827e-05
N -6.327537e+00 3.642768e+00 -7.809286e-01 2.509748e-04 -4.592569e-06 -1.623515e-04
N -3.177479e+00 -1.862189e+00 4.307556e+00 3.602752e-05 2.610956e-05 -9.077252e-06
N -3.164761e+00 -1.851816e+00 -5.827161e+00 1.911588e-05 -7.623680e-06 4.793194e-05
N -3.173166e+00 -1.854044e+00 -6.932126e-01 6.363725e-04 -2.014807e-04 -1.384047e-04
N -1.606375e+00 8.697054e-01 4.319671e+00 1.422527e-04 -7.079448e-05 5.876679e-05
N -1.551883e+00 8.480962e-01 -5.849034e+00 3.117952e-05 -1.896270e-04 3.831723e-04
N -1.631028e+00 8.438548e-01 -7.712094e-01 -6.097346e-05 6.708770e-05 3.709881e-04
N -3.135242e+00 3.565254e+00 4.361745e+00 -1.867703e-04 3.024953e-04 -4.075252e-04
N -3.166284e+00 3.645151e+00 -5.832281e+00 7.957855e-05 -7.312751e-05 8.432152e-05
N -3.214808e+00 3.576870e+00 -7.621624e-01 1.004140e-04 -2.977327e-04 -6.042310e-05
N -2.760519e-02 -1.811567e+00 4.307272e+00 -1.897338e-05 -3.665027e-05 -1.352490e-04
N -1.522107e-02 -1.850115e+00 -5.757036e+00 -4.030041e-04 -2.771279e-04 -1.617541e-04
N -6.386798e-02 -1.874804e+00 -7.809262e-01 4.229812e-05 -8.270766e-05 2.443415e-04
N -2.408615e-02 1.778206e+00 1.847610e+00 3.351107e-05 1.975615e-04 -1.212839e-04
N -2.759789e-02 1.773706e+00 6.843788e+00 1.353307e-05 9.088448e-05 -3.823924e-05
N -2.524245e-02 1.778478e+00 -3.309007e+00 -4.622677e-05 -2.599797e-05 -4.614193e-05
N 3.175213e+00 -3.648616e+00 1.820217e+00 -1.802664e-04 1.261787e-04 -6.173720e-05
N 3.126296e+00 -3.675917e+00 6.851360e+00 1.728604e-05 1.252478e-04 1.855757e-05
N 3.128833e+00 -3.673005e+00 -3.296762e+00 -4.068692e-05 8.109989e-05 2.250197e-05
N 1.553313e+00 -9.474197e-01 1.839123e+00 2.453833e-04 -2.568185e-04 -1.597273e-04
N 1.588971e+00 -9.285696e-01 6.832171e+00 -1.079428e-04 9.064412e-05 5.264766e-05
N 1.557471e+00 -9.471694e-01 -3.297860e+00 -9.819531e-05 7.445353e-05 3.568850e-05
N 3.122660e+00 1.773028e+00 1.839385e+00 9.381582e-04 3.463091e-04 -1.348568e-04
N 3.118127e+00 1.776636e+00 6.840424e+00 -7.046066e-06 -3.306774e-05 -7.379833e-07
N 3.132826e+00 1.780978e+00 -3.300149e+00 2.793780e-05 3.903980e-05 4.523887e-05
N 6.272955e+00 -3.678636e+00 1.781899e+00 4.417123e-05 2.286244e-05 5.208188e-05
N 6.273156e+00 -3.676723e+00 6.851647e+00 2.777542e-05 6.580036e-06 2.515650e-05
N 6.282234e+00 -3.713926e+00 -3.326465e+00 6.110603e-05 4.259886e-06 6.657569e-05
N 4.696285e+00 -9.462894e-01 1.791917e+00 -1.940928e-05 9.798985e-06 8.647123e-05
N 4.697767e+00 -9.546175e-01 6.841453e+00 -8.059297e-05 -1.602197e-05 -4.480066e-05
N 4.668508e+00 -9.210882e-01 -3.328791e+00 -2.411904e-05 -1.936541e-04 1.913182e-04
N -3.173947e+00 1.722790e+00 1.758110e+00 -4.546475e-04 3.528500e-04 -5.097037e-04
N -3.179176e+00 1.771223e+00 6.856519e+00 2.390139e-06 -4.679653e-06 9.772667e-06
N -3.169578e+00 1.778681e+00 -3.240503e+00 -1.736162e-04 2.220461e-04 1.095694e-04
N -6.616613e-02 -3.651401e+00 1.764977e+00 1.448922e-04 4.562633e-04 1.841692e-04
N -3.163884e-02 -3.724053e+00 6.895928e+00 -1.497578e-04 1.326043e-04 -1.042736e-04
N -1.852028e-02 -3.675519e+00 -3.293857e+00 -2.449833e-06 -5.697931e-05 2.504817e-05
N -1.596832e+00 -9.458107e-01 1.785354e+00 4.231290e-05 -1.181979e-04 1.167620e-05
N -1.645391e+00 -9.308335e-01 6.822073e+00 -3.254487e-05 -8.194306e-05 -3.481561e-04
N -1.560054e+00 -9.200984e-01 -3.306818e+00 -1.282964e-05 1.512047e-04 -4.164707e-05
