108
Energy=-2.313459e+06 Lattice="9.626269e+00 0.000000e+00 0.000000e+00 -4.813432e+00 8.336456e+00 0.000000e+00 2.691799e-04 6.540698e-04 1.561019e+01" Stress="-8.986954e-06 1.140348e-05 3.304839e-06 8.492016e-06 -5.638411e-06 -2.069250e-06 -1.771762e-06 3.729589e-06 -6.453232e-06" Properties=species:S:1:pos:R:3:forces:R:3 Config_type=AlGaN_super3_41_0_12.xyz
Al 1.572486e+00 9.009515e-01 2.446073e+00 -9.321228e-06 2.985158e-06 2.189166e-05
Al 1.594347e+00 8.954951e-01 7.654567e+00 -3.018475e-05 -1.455865e-05 -1.270510e-05
Ga 1.576747e+00 8.909232e-01 -2.734692e+00 -2.992325e-05 3.390791e-06 2.021205e-05
Al -3.279582e-02 3.652318e+00 2.434982e+00 -3.472811e-06 -9.009393e-06 1.135104e-06
Ga -6.245517e-03 3.665392e+00 7.650681e+00 -1.907193e-05 9.066595e-07 -1.345890e-05
Ga -2.564168e-02 3.660407e+00 -2.721251e+00 -2.546579e-05 -1.058637e-05 -4.336584e-06
Ga 3.182740e+00 -1.906808e+00 2.449771e+00 -1.001241e-05 2.948178e-05 2.409777e-05
Ga 3.192650e+00 -1.879592e+00 7.647602e+00 -2.384529e-05 1.588319e-05 1.513968e-05
Ga 3.186511e+00 -1.896644e+00 -2.729351e+00 -2.382843e-05 1.173844e-05 1.761718e-05
Ga -4.838325e+00 8.981765e-01 2.452805e+00 -1.558827e-05 4.259938e-06 1.795332e-05
Al -4.839951e+00 8.920730e-01 7.659966e+00 1.483196e-05 1.258383e-06 1.823868e-05
Ga -4.825173e+00 8.936429e-01 -2.748364e+00 -7.018543e-06 1.791986e-06 6.375056e-06
Ga -6.438692e+00 3.658404e+00 2.450668e+00 -1.240639e-05 -2.420865e-05 2.203085e-05
Al -6.446264e+00 3.656766e+00 7.644682e+00 9.650991e-06 1.431302e-05 1.861764e-05
Ga -6.437162e+00 3.667137e+00 -2.731057e+00 3.105476e-07 -1.595540e-05 3.179579e-06
Ga -3.232765e+00 -1.897219e+00 2.472282e+00 -1.069652e-05 1.116396e-05 4.160207e-05
Al -3.223680e+00 -1.889219e+00 7.639399e+00 1.196768e-05 2.004277e-05 6.181549e-06
Ga -3.232800e+00 -1.895076e+00 -2.746393e+00 -9.177490e-06 1.677166e-05 -3.350601e-06
Ga -1.618606e+00 9.043495e-01 2.448502e+00 -1.788323e-05 1.188354e-05 2.931291e-05
Ga -1.636506e+00 8.782468e-01 7.645660e+00 -4.736953e-05 -4.784239e-06 2.996883e-05
Ga -1.633996e+00 8.988729e-01 -2.730712e+00 -1.481612e-05 7.861899e-06 5.285453e-06
Al -3.224214e+00 3.663653e+00 2.420525e+00 -7.705917e-06 9.800876e-06 -2.158235e-05
Ga -3.243079e+00 3.652166e+00 7.666678e+00 -2.979844e-05 -2.143693e-05 2.872045e-08
Ga -3.233984e+00 3.655511e+00 -2.722155e+00 -1.344562e-05 -4.662558e-07 -1.804655e-05
Ga -1.869966e-02 -1.898202e+00 2.462253e+00 -2.048037e-05 3.027738e-05 2.291957e-05
Ga -3.627464e-02 -1.887915e+00 7.638268e+00 -4.961707e-05 -4.551234e-06 2.036217e-05
Ga -2.192945e-02 -1.898975e+00 -2.732679e+00 -9.679412e-06 1.460898e-05 1.987447e-05
Ga -1.834296e-02 1.807428e+00 5.042829e+00 4.254564e-05 -2.024325e-05 -2.351189e-05
Ga -2.944956e-02 1.808260e+00 -5.361960e+00 2.212980e-05 7.616090e-06 -5.414522e-06
Al -3.372855e-02 1.823475e+00 -1.203239e-01 -9.910567e-06 -1.028346e-05 3.590462e-06
Ga 3.182231e+00 -3.757782e+00 5.028777e+00 1.086964e-05 1.221612e-05 -1.473606e-05
Ga 3.179558e+00 -3.755185e+00 -5.342296e+00 2.825575e-05 1.784182e-06 2.025826e-05
Al 3.176450e+00 -3.768173e+00 -1.239450e-01 1.500153e-06 -3.018527e-05 3.187153e-05
Ga 1.572329e+00 -9.516194e-01 5.048749e+00 1.313914e-05 4.426803e-07 3.248028e-05
Ga 1.580410e+00 -9.594156e-01 -5.357046e+00 2.417424e-05 -4.003403e-06 2.445768e-05
Ga 1.575963e+00 -9.689706e-01 -1.263351e-01 2.012079e-06 -2.558726e-05 6.810574e-05
Ga 3.178394e+00 1.807473e+00 5.074287e+00 1.515780e-05 -8.413180e-07 1.069052e-05
Ga 3.194161e+00 1.814323e+00 -5.379348e+00 8.020582e-06 -5.878425e-06 -1.993353e-05
Ga 3.187871e+00 1.816975e+00 -1.354274e-01 2.689405e-05 8.703807e-06 3.490048e-05
Ga 6.394677e+00 -3.739907e+00 5.057176e+00 3.835051e-05 9.528109e-06 1.683159e-05
Ga 6.401659e+00 -3.742513e+00 -5.371426e+00 -4.482619e-06 1.943073e-06 6.320082e-06
Ga 6.386137e+00 -3.754267e+00 -1.255308e-01 1.616762e-05 5.385214e-06 5.652817e-05
Ga 4.803774e+00 -9.614302e-01 5.077994e+00 2.428701e-05 5.448289e-06 3.163694e-05
Ga 4.801918e+00 -9.549561e-01 -5.377125e+00 1.715657e-05 -1.347883e-05 3.006448e-05
Ga 4.791892e+00 -9.639992e-01 -1.398598e-01 3.225938e-05 -2.450255e-05 3.956592e-05
Ga -3.230390e+00 1.814947e+00 5.047847e+00 4.418351e-07 -1.865728e-05 -3.446881e-05
Al -3.236481e+00 1.809352e+00 -5.361275e+00 2.295780e-05 8.421573e-06 -3.924608e-05
Al -3.222108e+00 1.833134e+00 -1.288194e-01 1.689611e-05 8.586726e-06 7.874563e-06
Ga -1.880094e-02 -3.746416e+00 5.054363e+00 -8.396742e-06 5.559292e-06 -2.629682e-05
Ga -2.385360e-02 -3.756832e+00 -5.363265e+00 1.837828e-05 1.889093e-06 2.695480e-06
Al -3.674981e-03 -3.755369e+00 -1.291791e-01 5.498750e-06 1.223333e-06 2.581414e-05
Al -1.631367e+00 -9.656561e-01 5.062320e+00 1.753670e-05 -3.370856e-06 -2.683692e-06
Ga -1.636451e+00 -9.581112e-01 -5.357895e+00 2.572784e-05 7.387980e-06 3.363018e-06
Ga -1.622296e+00 -9.569275e-01 -1.435227e-01 1.103306e-05 -3.396508e-05 5.387258e-05
N 1.583645e+00 8.930818e-01 4.361787e+00 -3.345856e-05 -5.174934e-06 -6.249569e-06
N 1.580304e+00 8.876465e-01 -6.039844e+00 -1.936871e-05 -1.802473e-05 -6.004610e-06
N 1.534357e+00 9.132777e-01 -7.525823e-01 1.895931e-05 -1.254315e-05 -3.624062e-05
N -2.129323e-02 3.662025e+00 4.360366e+00 -2.856021e-05 -9.308359e-06 2.038232e-05
N -2.466122e-02 3.665999e+00 -5.988441e+00 -1.460589e-05 -1.956173e-05 5.157982e-07
N -6.735654e-02 3.639692e+00 -7.296196e-01 1.636256e-05 -7.831799e-06 -5.795524e-06
N 3.189368e+00 -1.890373e+00 4.430117e+00 -1.084267e-05 -9.833389e-06 -2.812478e-05
N 3.185514e+00 -1.896157e+00 -5.985765e+00 -2.469618e-05 8.033169e-06 -3.867307e-05
N 3.184253e+00 -1.947281e+00 -7.404816e-01 -2.989536e-06 3.955172e-05 -5.221512e-05
N -4.839709e+00 8.884419e-01 4.425512e+00 -5.846095e-06 -1.278257e-06 -7.778286e-06
N -4.792180e+00 9.142084e-01 -6.025974e+00 -2.578000e-05 -1.001791e-05 3.846883e-06
N -4.787012e+00 9.164682e-01 -7.597675e-01 -3.781515e-05 -2.176109e-05 -2.084671e-05
N -6.439170e+00 3.661221e+00 4.426042e+00 -4.479008e-06 7.748760e-06 -1.086740e-05
N -6.440809e+00 3.665121e+00 -6.049182e+00 -4.222290e-06 -3.168387e-06 3.753519e-06
N -6.397013e+00 3.692560e+00 -7.457343e-01 -2.583017e-05 -3.143003e-05 -2.036286e-05
N -3.191492e+00 -1.867872e+00 4.449330e+00 -1.722523e-05 5.877944e-06 -1.430216e-05
N -3.226014e+00 -1.891991e+00 -6.050363e+00 -6.527897e-06 1.119969e-05 -9.194874e-06
N -3.230420e+00 -1.896714e+00 -7.760999e-01 -2.004940e-05 1.587447e-05 -2.292495e-05
N -1.627219e+00 8.410588e-01 4.436554e+00 -1.084791e-05 7.488851e-06 8.449632e-06
N -1.671671e+00 9.100530e-01 -5.979543e+00 -4.343552e-06 -1.902293e-05 8.577789e-06
N -1.628884e+00 9.432642e-01 -7.324611e-01 1.438333e-05 1.514995e-06 -7.889854e-06
N -3.235876e+00 3.663133e+00 4.344965e+00 8.100100e-06 -1.462189e-06 4.889797e-05
N -3.230663e+00 3.614909e+00 -5.966243e+00 -1.589364e-05 1.382888e-05 2.289048e-06
N -3.231183e+00 3.662560e+00 -7.217693e-01 7.295541e-06 3.076755e-06 1.514419e-05
N -6.621103e-02 -1.871496e+00 4.447972e+00 9.209947e-06 8.038277e-07 -4.028697e-06
N -2.646188e-02 -1.891286e+00 -5.992433e+00 -6.195398e-06 2.157162e-05 -1.695612e-05
N -2.092593e-02 -1.945358e+00 -7.496071e-01 9.126706e-06 4.451686e-05 -3.625646e-05
N 1.797732e-02 1.836127e+00 1.807750e+00 -9.247704e-06 -7.604850e-06 -6.855188e-06
N 2.053642e-02 1.787952e+00 7.029361e+00 9.298629e-06 1.703413e-05 -2.856864e-07
N -2.460484e-02 1.812519e+00 -3.383525e+00 6.433897e-06 -1.261083e-05 4.395824e-06
N 3.186832e+00 -3.796130e+00 1.805935e+00 -1.075599e-05 -3.366873e-06 -1.834735e-05
N 3.182108e+00 -3.751450e+00 7.009107e+00 1.721869e-05 -8.893409e-06 5.918957e-06
N 3.183490e+00 -3.749848e+00 -3.365160e+00 1.527180e-05 -1.074486e-05 -1.044568e-05
N 1.580118e+00 -9.170658e-01 1.853135e+00 -6.658852e-06 -6.342136e-06 -6.078962e-05
N 1.580787e+00 -9.116161e-01 7.032003e+00 3.096155e-05 -8.595643e-08 -9.268443e-06
N 1.582130e+00 -9.638136e-01 -3.373046e+00 2.486618e-07 -1.415214e-05 -1.457891e-05
N 3.143975e+00 1.787992e+00 1.837529e+00 -3.492817e-06 4.412005e-06 -3.176027e-05
N 3.185221e+00 1.809570e+00 7.075667e+00 -6.451616e-06 -1.126762e-05 -1.732771e-05
N 3.185449e+00 1.813412e+00 -3.388901e+00 1.280176e-05 1.436069e-05 6.502466e-06
N 6.352066e+00 -3.768047e+00 1.851750e+00 9.764892e-08 2.126341e-05 -5.288280e-05
N 6.436063e+00 -3.720731e+00 7.047483e+00 -2.980033e-05 -2.102290e-05 -7.279689e-06
N 6.394364e+00 -3.750289e+00 -3.384155e+00 1.712546e-05 1.972524e-05 1.361569e-05
N 4.791462e+00 -9.654842e-01 1.829495e+00 1.358701e-05 6.740230e-07 -3.408420e-05
N 4.834563e+00 -9.367052e-01 7.066369e+00 -7.638834e-06 -8.335231e-06 -2.588389e-05
N 4.789138e+00 -9.639656e-01 -3.389263e+00 2.861038e-05 -2.019730e-06 -2.788084e-06
N -3.231563e+00 1.857473e+00 1.791203e+00 1.529632e-05 -5.651409e-06 -3.423257e-05
N -3.275701e+00 1.791834e+00 7.025541e+00 3.095726e-05 2.016301e-05 -3.719684e-06
N -3.230318e+00 1.815328e+00 -3.436399e+00 1.095432e-05 -9.226789e-06 6.983312e-06
N 1.883973e-02 -3.767463e+00 1.793280e+00 4.179299e-06 -4.291384e-06 -1.766918e-05
N -6.011457e-02 -3.772923e+00 7.035741e+00 3.708976e-05 7.888365e-06 -2.921645e-06
N -2.095939e-02 -3.749866e+00 -3.383022e+00 1.470987e-06 8.324895e-06 -2.121100e-06
N -1.627421e+00 -9.647291e-01 1.825780e+00 3.554303e-06 5.054755e-06 -6.408898e-05
N -1.669337e+00 -9.859048e-01 6.981280e+00 3.638691e-05 6.337465e-06 1.445515e-06
N -1.626342e+00 -9.610550e-01 -3.373265e+00 4.088763e-06 -8.292395e-06 -1.185137e-05
