108
Energy=-1.489500e+06 Lattice="9.519368e+00 0.000000e+00 0.000000e+00 -4.762478e+00 8.241427e+00 0.000000e+00 3.701543e-03 -5.211344e-04 1.537166e+01" Stress="-1.071462e-03 -1.484779e-04 2.471468e-05 -1.502625e-04 -1.562148e-03 -5.178552e-05 2.591526e-05 -6.609681e-05 -1.116351e-03" Properties=species:S:1:pos:R:3:forces:R:3 Config_type=AlGaN_super3_23_1_45.xyz
Al 1.576289e+00 8.718682e-01 2.418513e+00 -7.730971e-04 3.887072e-04 1.222116e-03
Al 1.570565e+00 8.801986e-01 7.524505e+00 -7.530456e-04 3.395870e-04 7.088762e-04
Al 1.561494e+00 8.830512e-01 -2.703579e+00 4.778750e-05 -6.639349e-05 1.087908e-04
Al -2.975337e-02 3.639909e+00 2.427957e+00 4.542649e-04 -4.092054e-04 4.738532e-04
Al -3.520000e-02 3.617800e+00 7.517454e+00 1.902171e-04 2.490358e-04 3.057086e-04
Al -2.885535e-02 3.617941e+00 -2.705707e+00 -1.206349e-04 2.918020e-05 1.601357e-04
Al 3.157831e+00 -1.877186e+00 2.391183e+00 2.714981e-04 -3.098107e-05 4.009391e-04
Al 3.161187e+00 -1.877857e+00 7.507844e+00 8.566764e-05 -9.081161e-05 2.536044e-04
Ga 3.164816e+00 -1.872112e+00 -2.668958e+00 -9.932324e-05 1.135060e-04 6.320298e-04
Al -4.797139e+00 8.672269e-01 2.429036e+00 4.314822e-04 3.230888e-04 -7.199398e-05
Al -4.787385e+00 8.741802e-01 7.513880e+00 3.922343e-04 -3.991768e-04 1.141619e-04
Al -4.778907e+00 8.743071e-01 -2.705323e+00 3.036525e-04 -3.246762e-05 1.745170e-04
Al -6.367393e+00 3.622858e+00 2.420003e+00 -7.126744e-04 -6.917218e-04 -4.283653e-04
Ga -6.373362e+00 3.604962e+00 7.524430e+00 -1.462547e-04 2.254521e-04 2.711102e-04
Ga -6.363778e+00 3.621686e+00 -2.699527e+00 -4.181285e-05 1.446583e-05 3.761279e-05
Al -3.211627e+00 -1.876181e+00 2.432506e+00 2.827827e-04 2.438435e-04 -3.608477e-06
Ga -3.211902e+00 -1.868728e+00 7.518061e+00 -1.109962e-04 -5.702788e-06 1.542480e-04
Al -3.204579e+00 -1.863535e+00 -2.702740e+00 -5.018376e-05 1.470789e-04 1.094164e-04
Ga -1.612451e+00 8.817326e-01 2.419289e+00 2.311461e-04 -1.811955e-04 -8.882208e-05
Al -1.609263e+00 8.941533e-01 7.566583e+00 1.617806e-04 -1.776170e-04 1.434878e-04
Ga -1.617165e+00 8.906953e-01 -2.739955e+00 2.524452e-04 -1.360770e-04 -2.377071e-05
Al -3.192083e+00 3.639851e+00 2.410096e+00 -5.392770e-05 -6.431808e-04 -2.387210e-04
Al -3.180171e+00 3.619346e+00 7.537897e+00 -1.642331e-05 -2.876351e-04 -3.068784e-04
Al -3.200577e+00 3.618539e+00 -2.707562e+00 2.786858e-04 -6.807752e-05 4.824246e-04
Al -9.722982e-03 -1.879280e+00 2.394574e+00 -2.679351e-04 3.841845e-05 9.233749e-05
Ga -9.575003e-03 -1.867125e+00 7.555836e+00 -6.476013e-05 -8.582447e-05 3.587434e-04
Ga -1.981574e-02 -1.877426e+00 -2.701837e+00 1.073830e-04 -1.244389e-04 2.272557e-04
Ga -8.854703e-03 1.809864e+00 4.988845e+00 -1.504944e-04 -1.825654e-05 7.302499e-05
Al -2.744076e-02 1.790550e+00 -5.289873e+00 8.278732e-05 4.720179e-04 -4.265264e-04
Ga -1.443551e-02 1.799300e+00 -1.343604e-01 -1.521511e-04 2.991670e-04 4.175537e-05
Al 3.165578e+00 -3.695191e+00 4.968278e+00 -3.644239e-04 1.600785e-04 -1.342379e-05
Ga 3.142676e+00 -3.721023e+00 -5.279009e+00 2.002373e-04 2.562004e-04 3.677489e-04
Al 3.141723e+00 -3.697198e+00 -1.368113e-01 1.964503e-04 -3.399890e-04 -5.655561e-04
Ga 1.590406e+00 -9.590922e-01 4.962381e+00 -1.689113e-04 2.829109e-04 1.788256e-04
Ga 1.560732e+00 -9.496580e-01 -5.279053e+00 -9.314850e-05 2.328142e-04 2.709225e-04
Al 1.572731e+00 -9.598235e-01 -1.217079e-01 6.454407e-04 -4.699968e-04 -6.045227e-04
Al 3.149934e+00 1.786529e+00 4.958902e+00 -2.310681e-04 -5.383085e-04 -2.164907e-04
Ga 3.152439e+00 1.786236e+00 -5.267852e+00 1.238650e-05 -1.983547e-04 1.485033e-04
Ga 3.154301e+00 1.775870e+00 -1.299830e-01 1.450404e-04 4.712149e-05 -4.276652e-05
Al 6.312465e+00 -3.706569e+00 4.946575e+00 3.780333e-06 1.923547e-04 -4.881588e-05
Ga 6.320305e+00 -3.702712e+00 -5.258890e+00 -9.195407e-05 -1.133888e-04 3.548712e-05
Ga 6.310814e+00 -3.689529e+00 -1.258958e-01 8.388964e-05 -1.674091e-04 -3.444841e-04
Al 4.727518e+00 -9.631855e-01 4.955926e+00 -1.179117e-04 1.710346e-04 1.024551e-04
Ga 4.746513e+00 -9.429654e-01 -5.273890e+00 -2.383874e-04 -1.707547e-04 4.234547e-04
Al 4.735013e+00 -9.567549e-01 -1.269193e-01 -6.029438e-05 6.641143e-05 -3.081209e-04
Ga -3.211774e+00 1.799127e+00 4.987532e+00 2.788549e-04 -8.922952e-05 3.263866e-04
Al -3.201386e+00 1.799865e+00 -5.291803e+00 -1.341806e-04 -2.067536e-04 1.089324e-04
Ga -3.216216e+00 1.808612e+00 -1.374357e-01 4.817059e-05 3.929949e-05 -2.940911e-04
Ga -1.888221e-02 -3.712058e+00 4.951889e+00 1.714298e-04 9.398326e-05 2.556717e-04
Al -1.107535e-02 -3.708340e+00 -5.273807e+00 6.610967e-05 2.890039e-05 1.142354e-04
Al -9.140690e-04 -3.698228e+00 -1.157304e-01 7.211568e-05 -3.043504e-04 -1.325031e-04
Ga -1.615830e+00 -9.647567e-01 4.971488e+00 -3.374691e-04 1.805575e-04 2.209311e-04
Al -1.609553e+00 -9.452471e-01 -5.271001e+00 -1.546045e-04 2.021331e-05 1.639663e-04
Ga -1.613181e+00 -9.698923e-01 -1.299098e-01 -2.325424e-04 -1.084741e-04 -2.623459e-04
N 1.600095e+00 8.966775e-01 4.326834e+00 3.389586e-04 -7.209559e-05 -1.960494e-04
N 1.525946e+00 9.028489e-01 -5.934302e+00 1.428787e-04 -1.154703e-04 -4.578291e-04
N 1.560318e+00 8.281221e-01 -7.886614e-01 3.007488e-05 -3.348841e-04 -4.710492e-05
N -3.195169e-02 3.669626e+00 4.343615e+00 1.561546e-04 -1.218347e-05 -5.912534e-04
N -2.395124e-02 3.582030e+00 -5.937271e+00 -1.210774e-04 -2.924271e-04 -2.127699e-04
N -6.802308e-02 3.646946e+00 -7.919656e-01 -3.267578e-04 1.484057e-04 1.586501e-04
N 3.196096e+00 -1.902148e+00 4.318790e+00 -1.171749e-04 2.162773e-05 -2.117145e-04
N 3.157747e+00 -1.876227e+00 -5.948953e+00 -1.069071e-04 -1.138841e-05 -5.744153e-04
N 3.154921e+00 -1.870793e+00 -6.810538e-01 -5.440990e-04 5.762502e-04 3.744944e-04
N -4.822523e+00 8.495016e-01 4.346149e+00 1.026176e-04 -5.953408e-05 -1.396194e-04
N -4.748748e+00 8.985725e-01 -5.942124e+00 1.545560e-04 2.273999e-04 -4.423023e-04
N -4.781335e+00 8.262157e-01 -7.928245e-01 -2.745167e-04 -9.676514e-05 -3.129961e-05
N -6.409558e+00 3.595850e+00 4.340097e+00 -1.416464e-04 5.499018e-04 1.797931e-04
N -6.334778e+00 3.644825e+00 -5.870555e+00 -5.177372e-05 6.527857e-05 -1.814994e-04
N -6.325881e+00 3.650811e+00 -7.217393e-01 2.798036e-05 1.065200e-04 7.663991e-05
N -3.239241e+00 -1.891793e+00 4.347829e+00 -3.713745e-05 -3.006804e-04 2.934761e-04
N -3.157163e+00 -1.850746e+00 -5.884985e+00 7.256957e-05 2.175020e-04 -2.783662e-04
N -3.238905e+00 -1.844650e+00 -7.908174e-01 -1.943820e-04 9.870957e-05 2.385170e-04
N -1.609947e+00 8.842396e-01 4.372461e+00 2.317906e-04 -1.151020e-04 -3.379083e-04
N -1.613415e+00 8.812243e-01 -5.869908e+00 1.863474e-04 -9.241730e-05 -7.163847e-06
N -1.614693e+00 8.802448e-01 -7.640909e-01 3.622883e-04 -9.972812e-05 1.520454e-04
N -3.146643e+00 3.647935e+00 4.318000e+00 2.623256e-04 2.070467e-04 4.348800e-04
N -3.237134e+00 3.603366e+00 -5.919063e+00 -6.491637e-05 4.035523e-05 -5.169719e-05
N -3.201007e+00 3.674400e+00 -7.798490e-01 7.651206e-05 2.301159e-04 -1.768938e-05
N -1.526262e-02 -1.869067e+00 4.299913e+00 2.502461e-04 -1.319677e-04 -2.759487e-04
N -6.404907e-02 -1.894754e+00 -5.841464e+00 3.843674e-05 -2.221521e-04 -2.254978e-04
N 2.152728e-02 -1.895705e+00 -7.147295e-01 1.012510e-04 1.226443e-04 1.067439e-04
N 2.342903e-02 1.822303e+00 1.839757e+00 1.444765e-04 3.499428e-05 -8.427657e-05
N -2.410687e-02 1.789045e+00 6.971885e+00 4.024829e-04 -2.093835e-04 2.354746e-05
N 2.413929e-02 1.819106e+00 -3.359596e+00 2.673385e-05 9.352138e-05 8.456493e-06
N 3.153725e+00 -3.708582e+00 1.787051e+00 6.571532e-05 1.304560e-04 -9.305834e-05
N 3.151632e+00 -3.705919e+00 6.903344e+00 -1.042076e-04 1.080402e-04 -9.477686e-05
N 3.149682e+00 -3.747584e+00 -3.293718e+00 -1.140090e-04 -1.246978e-04 -2.736808e-04
N 1.569539e+00 -9.511513e-01 1.802851e+00 -1.607428e-04 1.726251e-04 1.987079e-05
N 1.608217e+00 -9.349071e-01 6.943770e+00 -7.995623e-05 2.004699e-04 -1.496858e-04
N 1.575358e+00 -9.109027e-01 -3.305115e+00 -2.440060e-04 1.585135e-04 -2.761287e-04
N 3.148868e+00 1.786969e+00 1.851011e+00 1.201083e-03 9.046918e-04 -2.772793e-04
N 3.149880e+00 1.742652e+00 6.882412e+00 2.188300e-04 -9.776155e-05 -3.657793e-04
N 3.150166e+00 1.741463e+00 -3.286619e+00 1.605567e-06 -4.236905e-05 -2.400846e-05
N 6.322097e+00 -3.699262e+00 1.858734e+00 -1.336652e-04 -3.861774e-04 2.808995e-04
N 6.283899e+00 -3.730016e+00 6.866138e+00 -5.354304e-05 -1.269601e-04 -3.166364e-04
N 6.280322e+00 -3.678570e+00 -3.279309e+00 1.219100e-04 -6.390118e-05 6.529525e-05
N 4.743727e+00 -9.512818e-01 1.800157e+00 -1.078735e-04 -6.614525e-05 -4.382689e-05
N 4.695456e+00 -9.326137e-01 6.876630e+00 -3.324261e-05 4.819317e-04 -1.055260e-04
N 4.773197e+00 -9.305269e-01 -3.296613e+00 -1.323488e-04 -8.194657e-05 -3.206979e-04
N -3.247856e+00 1.819343e+00 1.836808e+00 -6.487892e-04 8.051049e-05 3.604743e-04
N -3.193815e+00 1.793386e+00 6.974020e+00 -3.361568e-04 -4.879293e-05 1.709855e-05
N -3.247778e+00 1.822006e+00 -3.358250e+00 -6.478215e-05 1.186659e-04 -3.230305e-04
N -1.754549e-02 -3.707602e+00 1.807854e+00 -6.576240e-05 -4.377084e-05 -4.198361e-06
N 2.299307e-02 -3.726083e+00 6.922417e+00 1.884484e-04 -1.673618e-04 -4.481271e-05
N 2.383112e-02 -3.727027e+00 -3.363117e+00 -2.897878e-05 -1.644220e-05 -1.359898e-04
N -1.616304e+00 -1.006801e+00 1.842888e+00 -1.404826e-04 -4.556513e-06 -7.672411e-05
N -1.603771e+00 -9.034903e-01 6.942490e+00 -7.304313e-05 -1.679523e-05 -3.252314e-04
N -1.648609e+00 -9.799205e-01 -3.354919e+00 -1.634050e-04 -1.419756e-04 -1.726830e-05
