108
Energy=-1214847.419910 Lattice="9.488455 0.000000 0.000000 -4.745720 8.215479 0.000000 -0.002753 -0.001725 15.292794" Stress="-0.000002 -0.000001 0.000000 -0.000001 -0.000002 -0.000001 0.000000 -0.000001 -0.000001" Properties=species:S:1:pos:R:3:forces:R:3
Al 1.565434 0.884826 2.399397 0.000097 -0.000301 -0.000048
Al 1.564164 0.881148 7.470661 -0.000023 0.000001 0.000195
Al 1.548978 0.877159 -2.678559 0.000396 0.000493 -0.000151
Al -0.026796 3.603564 2.386247 -0.000744 -0.000267 0.000637
Al -0.027231 3.600397 7.479042 -0.000525 -0.000727 0.001362
Al -0.026668 3.594919 -2.669054 0.000275 0.000481 -0.000487
Al 3.144018 -1.862685 2.395668 0.001251 0.000975 0.000507
Al 3.142792 -1.858188 7.483658 -0.000029 -0.000079 0.000385
Ga 3.149051 -1.854865 -2.687671 0.000035 -0.000153 0.000580
Al -4.786996 0.870556 2.400216 -0.001353 -0.000253 0.000611
Al -4.783293 0.872972 7.490285 -0.000603 -0.000239 0.000747
Al -4.758210 0.869659 -2.695954 0.000201 -0.000159 0.000033
Al -6.350895 3.592362 2.385351 -0.001445 -0.000726 0.000492
Al -6.340284 3.591063 7.489048 -0.000050 -0.000086 0.000142
Ga -6.346794 3.604282 -2.673150 -0.000184 0.000240 0.000031
Ga -3.204821 -1.861121 2.407191 0.000028 -0.000097 0.000108
Ga -3.204770 -1.865150 7.481832 0.000007 0.000208 0.000233
Al -3.204582 -1.858888 -2.677560 -0.000122 -0.000125 0.000157
Al -1.589198 0.885741 2.413974 0.000036 -0.000023 -0.000020
Ga -1.598091 0.897326 7.509758 0.000591 -0.000204 0.000300
Al -1.603249 0.898661 -2.710668 -0.000088 -0.000111 -0.000045
Ga -3.178389 3.617771 2.411072 0.000323 -0.000144 0.000272
Al -3.190098 3.613850 7.485051 -0.000346 -0.000252 0.000317
Al -3.183828 3.599491 -2.690415 -0.000105 -0.000241 0.000117
Ga -0.011426 -1.861673 2.418175 -0.000080 0.000210 0.000315
Ga -0.003703 -1.874633 7.486042 0.000007 -0.000129 0.000129
Ga -0.008620 -1.863974 -2.689155 -0.000058 -0.000224 0.000142
Al -0.014001 1.782372 4.928435 0.000257 0.000240 0.000238
Al -0.012871 1.784370 -5.233248 -0.000203 -0.000274 -0.000162
Al -0.011554 1.791777 -0.141340 -0.000053 0.000000 -0.000306
Al 3.144040 -3.677309 4.955799 0.000283 0.000019 0.000057
Ga 3.134371 -3.696561 -5.255916 -0.000005 0.000108 0.000244
Al 3.146474 -3.685949 -0.153084 -0.000049 0.000146 0.000033
Al 1.572341 -0.946071 4.937769 0.000044 -0.000055 0.000152
Al 1.567884 -0.940163 -5.263681 -0.000169 0.000064 0.000266
Al 1.573162 -0.942436 -0.126231 -0.000190 0.000049 0.000287
Al 3.134790 1.778441 4.942953 -0.000138 0.000024 0.000285
Ga 3.140462 1.769224 -5.255540 -0.000042 -0.000047 0.000415
Al 3.129486 1.777075 -0.143796 0.000204 0.000088 0.000693
Ga 6.304579 -3.707328 4.941531 -0.000024 -0.000145 -0.000061
Ga 6.299917 -3.698588 -5.242785 -0.000185 -0.000074 0.000176
Al 6.291108 -3.700478 -0.138606 0.000149 0.000270 0.000088
Al 4.697031 -0.947142 4.940622 -0.000201 -0.000115 0.000407
Al 4.716884 -0.938556 -5.246254 -0.000232 0.000061 0.000379
Al 4.704896 -0.952376 -0.140856 0.000097 0.000108 0.000413
Ga -3.192291 1.778848 4.944730 -0.000069 -0.000322 0.000297
Al -3.194803 1.793407 -5.242226 -0.000736 0.000128 0.000294
Ga -3.192186 1.788496 -0.147749 0.000016 -0.000027 0.000245
Al -0.023101 -3.695086 4.954131 -0.001320 0.001005 0.000570
Al -0.007777 -3.701321 -5.255776 -0.000133 -0.000098 0.000117
Al -0.019369 -3.695522 -0.137278 -0.000028 -0.000021 0.000051
Al -1.592875 -0.943393 4.943553 -0.000103 -0.000208 0.000060
Ga -1.601318 -0.945135 -5.217334 -0.000143 -0.000334 -0.000036
Ga -1.604411 -0.949012 -0.159456 -0.000199 0.000089 0.000258
N 1.560753 0.876166 4.325581 0.000173 0.000024 -0.000110
N 1.512626 0.854115 -5.898870 0.000142 0.000115 -0.000269
N 1.552831 0.871968 -0.751470 0.000223 -0.000106 -0.000177
N -0.071542 3.589384 4.307011 -0.000091 0.000064 0.000068
N -0.024914 3.557312 -5.898580 0.000074 0.000483 -0.001031
N -0.024894 3.605527 -0.747652 0.000046 0.000037 -0.000093
N 3.139398 -1.870579 4.323904 0.000122 -0.000109 -0.000069
N 3.145121 -1.817603 -5.880805 0.000123 -0.000118 -0.000391
N 3.135930 -1.861063 -0.708378 0.000283 -0.000082 -0.000507
N -4.816577 0.848507 4.313506 0.000205 0.000222 -0.000055
N -4.725237 0.849650 -5.881750 -0.000031 -0.000080 -0.000092
N -4.810153 0.848791 -0.777702 0.000145 -0.000020 -0.000145
N -6.304555 3.581787 4.307042 -0.000118 0.000107 -0.000057
N -6.306804 3.629502 -5.888912 -0.000034 0.000059 -0.000235
N -6.349251 3.611009 -0.694182 -0.000093 -0.000033 -0.000126
N -3.191638 -1.818561 4.382543 0.000095 -0.000191 -0.000259
N -3.224632 -1.840097 -5.842956 0.000215 -0.000007 -0.000302
N -3.237493 -1.889531 -0.758078 0.000088 -0.000177 -0.000111
N -1.560164 0.855532 4.323986 -0.000319 0.000070 -0.000367
N -1.602305 0.926698 -5.803547 0.000749 -0.000192 -0.000205
N -1.561740 0.910685 -0.801578 0.000026 -0.000080 0.000180
N -3.183461 3.664086 4.381082 0.000959 -0.000408 -0.000790
N -3.224865 3.587095 -5.888368 0.000245 0.000149 -0.000410
N -3.188715 3.658088 -0.770494 0.000110 -0.000015 -0.000187
N -0.016259 -1.867279 4.399432 0.000168 -0.000559 -0.000227
N 0.018949 -1.888248 -5.823212 0.000088 0.000031 -0.000197
N 0.028416 -1.888282 -0.714379 0.000209 -0.000040 -0.000301
N -0.020291 1.784843 1.785315 -0.000034 -0.000103 0.000135
N 0.018328 1.807766 6.842471 -0.000290 0.000166 -0.000158
N -0.010931 1.790714 -3.306993 0.000160 0.000231 -0.000026
N 3.181379 -3.665212 1.765933 0.000216 -0.000629 -0.000223
N 3.143710 -3.686997 6.888785 -0.000086 0.000062 -0.000129
N 3.143487 -3.738348 -3.271426 0.000339 0.000050 0.000080
N 1.603377 -0.925374 1.791078 -0.000758 0.000901 -0.000167
N 1.606713 -0.926364 6.855463 -0.000215 0.000100 -0.000190
N 1.565566 -0.896973 -3.349303 0.000107 -0.000150 -0.000146
N 3.138645 1.781411 1.781975 -0.000312 -0.000007 -0.000574
N 3.139674 1.783220 6.875544 -0.000037 0.000076 -0.000290
N 3.138474 1.735604 -3.273657 -0.000725 -0.000016 -0.000004
N 6.298205 -3.737421 1.785846 0.000946 0.000309 -0.000655
N 6.305334 -3.747161 6.916237 0.000545 0.000458 -0.000382
N 6.261221 -3.671541 -3.261090 -0.000256 -0.000318 0.000005
N 4.678522 -0.922269 1.772849 -0.000355 -0.001285 -0.000351
N 4.673686 -0.924976 6.853277 -0.000127 0.000003 -0.000246
N 4.760255 -0.925845 -3.328819 0.000009 -0.000076 -0.000228
N -3.188849 1.736772 1.838481 0.000943 0.000739 -0.000855
N -3.232030 1.802582 6.916991 0.000961 0.000724 -0.000668
N -3.193178 1.791499 -3.307981 0.000029 0.000063 0.000074
N -0.061181 -3.714411 1.767737 0.001022 0.000574 -0.000661
N -0.026672 -3.742248 6.863398 0.000065 0.000204 0.000114
N 0.018897 -3.719331 -3.342847 -0.000022 0.000041 -0.000150
N -1.604691 -0.903711 1.812344 -0.000103 -0.000110 -0.000498
N -1.600479 -0.943872 6.846314 -0.000151 0.000008 0.000000
N -1.645564 -0.930575 -3.242307 0.000011 0.000087 0.000132
