108
Energy=-1.397949e+06 Lattice="9.509637e+00 0.000000e+00 0.000000e+00 -4.755778e+00 8.234132e+00 0.000000e+00 -3.271395e-03 1.814436e-03 1.535112e+01" Stress="-2.000937e-04 -8.587644e-05 -1.350835e-05 -9.569345e-05 -4.460805e-04 5.161915e-05 -1.699771e-05 4.194383e-05 -3.354087e-04" Properties=species:S:1:pos:R:3:forces:R:3 Config_type=AlGaN_super3_21_2_38.xyz
Al 1.571900e+00 8.704494e-01 2.406526e+00 2.229874e-04 -1.048247e-04 -2.144401e-05
Al 1.574173e+00 8.802301e-01 7.528956e+00 -6.307168e-05 -1.487229e-05 2.091665e-05
Al 1.567187e+00 8.664262e-01 -2.712439e+00 -8.009819e-05 1.321283e-05 -5.835841e-06
Al -8.029485e-03 3.627754e+00 2.429638e+00 -9.866657e-05 7.750592e-05 -1.502209e-05
Al -1.753052e-02 3.623903e+00 7.515028e+00 -7.252289e-05 1.375384e-04 -3.661243e-05
Al -2.404081e-02 3.612429e+00 -2.708047e+00 2.831405e-05 -1.989082e-05 6.439469e-05
Al 3.143110e+00 -1.855192e+00 2.401285e+00 -6.355135e-05 -2.254246e-05 -5.227205e-05
Al 3.140410e+00 -1.869643e+00 7.549802e+00 4.859637e-05 -1.900257e-05 -8.506303e-05
Ga 3.131137e+00 -1.863308e+00 -2.716724e+00 -5.112513e-06 3.987023e-05 -3.047409e-06
Al -4.793631e+00 8.707905e-01 2.406169e+00 8.149047e-06 1.201268e-04 5.871015e-05
Al -4.795587e+00 8.845461e-01 7.539453e+00 -4.213340e-05 -2.517262e-04 1.427350e-06
Al -4.780677e+00 8.880964e-01 -2.712552e+00 9.471582e-06 -7.873042e-05 7.843750e-05
Ga -6.376466e+00 3.615287e+00 2.402677e+00 3.545983e-05 -1.296123e-05 6.395894e-05
Al -6.365746e+00 3.611949e+00 7.524060e+00 3.631158e-05 1.085801e-04 -1.309682e-04
Ga -6.362859e+00 3.606414e+00 -2.697781e+00 1.244889e-05 -2.205022e-05 4.168945e-05
Al -3.195649e+00 -1.877376e+00 2.396079e+00 -1.302394e-04 -3.762436e-05 -2.730377e-05
Al -3.197190e+00 -1.881339e+00 7.519176e+00 -5.525819e-05 -7.981449e-08 -1.656327e-05
Ga -3.184252e+00 -1.867129e+00 -2.681601e+00 -4.010130e-05 6.035439e-06 2.428220e-05
Ga -1.605790e+00 8.687296e-01 2.401631e+00 -6.513244e-06 2.713737e-05 1.044032e-05
Ga -1.601641e+00 8.817174e-01 7.532334e+00 5.839536e-06 -4.612298e-05 2.791679e-05
Al -1.610249e+00 8.769008e-01 -2.698028e+00 -7.630850e-05 -4.616884e-05 -5.670163e-05
Ga -3.197380e+00 3.625143e+00 2.392219e+00 2.442788e-06 -2.559427e-05 3.156453e-05
Al -3.199115e+00 3.628288e+00 7.566801e+00 2.096517e-04 -2.953565e-05 -2.628932e-05
Ga -3.191599e+00 3.611094e+00 -2.720867e+00 4.554835e-05 -5.740638e-05 -6.879090e-06
Al -1.794805e-02 -1.860103e+00 2.379717e+00 3.393767e-05 -4.389188e-05 -5.581744e-06
Al -1.388167e-02 -1.876559e+00 7.552961e+00 -5.797103e-05 -1.564210e-05 4.201917e-05
Al -1.247796e-02 -1.855834e+00 -2.702840e+00 3.696877e-05 2.399018e-05 1.102272e-04
Al 4.370698e-03 1.802183e+00 4.968355e+00 2.710034e-05 1.245176e-04 -6.336601e-05
Ga -1.221803e-02 1.792790e+00 -5.245719e+00 9.841465e-05 1.164694e-04 6.179366e-05
Ga -1.022219e-02 1.787389e+00 -1.636592e-01 -6.949150e-06 3.218752e-05 1.370365e-05
Ga 3.161575e+00 -3.702088e+00 4.985015e+00 -5.035475e-05 7.756611e-05 4.918681e-05
Al 3.138536e+00 -3.705175e+00 -5.285844e+00 -8.036624e-05 -4.882179e-05 -2.302403e-04
Ga 3.151215e+00 -3.701763e+00 -1.345251e-01 -2.200011e-05 -2.495085e-05 3.284187e-05
Ga 1.558178e+00 -9.372382e-01 4.976105e+00 -5.933519e-05 9.118182e-06 3.982158e-05
Al 1.561655e+00 -9.575164e-01 -5.278017e+00 4.138270e-05 -7.962786e-05 8.973768e-05
Al 1.548077e+00 -9.467749e-01 -1.425003e-01 -1.138369e-04 5.875418e-05 7.100491e-05
Al 3.130873e+00 1.791027e+00 4.979925e+00 2.933439e-04 2.144053e-04 -9.027683e-05
Al 3.155187e+00 1.786876e+00 -5.278149e+00 -3.757397e-05 -1.991843e-04 2.405173e-04
Al 3.151655e+00 1.785604e+00 -1.525064e-01 6.613992e-05 -4.173844e-05 4.873496e-05
Al 6.314154e+00 -3.710291e+00 4.980878e+00 5.177473e-05 -6.725524e-05 -4.029828e-05
Ga 6.321295e+00 -3.713346e+00 -5.284863e+00 -9.385431e-06 2.642250e-05 2.783052e-05
Al 6.323313e+00 -3.703430e+00 -1.344018e-01 3.356605e-05 -6.391082e-05 1.167974e-04
Ga 4.729971e+00 -9.511466e-01 4.969760e+00 -4.867483e-05 -2.030931e-06 3.075585e-05
Ga 4.722815e+00 -9.422551e-01 -5.277208e+00 -3.884876e-05 1.789793e-05 -4.584862e-06
Ga 4.735615e+00 -9.337065e-01 -1.295388e-01 -1.423352e-05 -2.183272e-06 -3.397090e-05
Ga -3.207479e+00 1.791529e+00 4.989825e+00 -9.267456e-05 -9.495913e-07 2.473628e-06
Al -3.207461e+00 1.801297e+00 -5.265108e+00 -1.644273e-04 1.341546e-04 1.483836e-05
Al -3.208746e+00 1.782401e+00 -1.610957e-01 -9.917294e-05 -4.789792e-05 2.418970e-05
Ga -3.716682e-02 -3.697012e+00 4.997551e+00 2.515618e-05 -1.983122e-05 6.397432e-06
Al -1.289786e-02 -3.702730e+00 -5.283392e+00 1.393372e-04 7.421871e-05 -1.562687e-04
Al -3.253374e-02 -3.687302e+00 -1.570624e-01 -1.091445e-05 4.349150e-05 4.748060e-05
Ga -1.605087e+00 -9.676418e-01 4.971134e+00 -2.232513e-05 -3.185296e-05 2.760290e-05
Ga -1.591081e+00 -9.607919e-01 -5.253172e+00 -1.047669e-05 -7.821233e-05 1.159899e-05
Al -1.595574e+00 -9.611420e-01 -1.524282e-01 -4.956236e-06 -5.010051e-05 -7.173990e-06
N 1.567022e+00 9.220353e-01 4.330225e+00 -9.901436e-05 -1.084641e-04 7.031877e-05
N 1.604173e+00 8.548646e-01 -5.899830e+00 7.598525e-05 1.184378e-04 -8.397656e-05
N 1.610768e+00 8.472461e-01 -7.918886e-01 -2.969673e-05 -1.091288e-05 -1.034855e-04
N 2.050487e-02 3.600627e+00 4.349372e+00 1.823294e-05 -5.350733e-05 -3.258743e-05
N -6.172791e-02 3.634097e+00 -5.928755e+00 3.909514e-05 -9.914270e-06 9.069252e-05
N 1.764728e-02 3.648909e+00 -8.034086e-01 7.953184e-05 1.319999e-05 -2.747481e-05
N 3.139705e+00 -1.866585e+00 4.309020e+00 8.453722e-06 2.648499e-05 -7.306742e-05
N 3.105500e+00 -1.893863e+00 -5.886553e+00 -7.575523e-05 1.422977e-04 7.546445e-05
N 3.103122e+00 -1.842748e+00 -7.427396e-01 1.344489e-04 -3.034902e-05 -2.478761e-05
N -4.825822e+00 9.053332e-01 4.322017e+00 -5.717514e-05 8.112173e-06 -5.185210e-05
N -4.779521e+00 9.263107e-01 -5.901653e+00 1.904711e-05 3.411326e-05 -3.612910e-05
N -4.782246e+00 9.262205e-01 -7.966303e-01 1.400368e-05 -1.270986e-05 -4.661074e-05
N -6.404736e+00 3.595868e+00 4.391587e+00 -1.125486e-04 -1.768939e-05 5.879177e-05
N -6.320126e+00 3.589962e+00 -5.904483e+00 -9.123453e-05 -9.035523e-05 6.598865e-05
N -6.364169e+00 3.616083e+00 -7.083380e-01 -1.078644e-04 1.178136e-04 -5.433542e-05
N -3.193441e+00 -1.921485e+00 4.319053e+00 4.551513e-05 -1.504421e-05 4.769973e-05
N -3.187747e+00 -1.870321e+00 -5.930022e+00 -1.009730e-06 4.937759e-05 -2.907466e-05
N -3.153411e+00 -1.893368e+00 -7.104622e-01 5.673503e-05 2.644067e-06 4.117566e-06
N -1.567869e+00 9.018890e-01 4.383226e+00 3.032342e-05 -2.104683e-05 3.532494e-05
N -1.643289e+00 9.017858e-01 -5.851205e+00 3.413238e-05 -1.367788e-04 -6.294310e-05
N -1.651687e+00 8.534741e-01 -7.733496e-01 8.253253e-05 -3.894063e-05 6.344856e-05
N -3.198689e+00 3.624697e+00 4.355146e+00 2.743951e-05 -9.181676e-05 -6.825110e-05
N -3.193209e+00 3.616903e+00 -5.863279e+00 1.344243e-05 -2.439001e-05 -3.340287e-06
N -3.233933e+00 3.599016e+00 -7.359543e-01 3.301006e-05 -2.280178e-06 -8.967897e-05
N -1.823013e-02 -1.871547e+00 4.289008e+00 -1.615835e-05 -3.365773e-05 1.831934e-05
N 2.063324e-02 -1.892860e+00 -5.892071e+00 4.896738e-05 1.223647e-05 6.425635e-06
N -1.550188e-02 -1.865360e+00 -7.727512e-01 -1.873658e-05 -3.563640e-05 1.700824e-05
N 2.259572e-02 1.817830e+00 1.819933e+00 -1.735621e-04 1.633262e-04 -6.692942e-05
N 2.697476e-02 1.813731e+00 6.891283e+00 3.705289e-05 -1.414173e-04 -4.135611e-05
N -1.965587e-02 1.787846e+00 -3.255890e+00 8.367721e-05 -3.940351e-06 1.277289e-05
N 3.196845e+00 -3.676691e+00 1.837689e+00 1.089669e-04 -5.496194e-05 3.976724e-05
N 3.142824e+00 -3.697373e+00 6.971823e+00 -7.942140e-05 -8.396011e-05 6.161158e-05
N 3.190562e+00 -3.724480e+00 -3.368474e+00 1.999986e-05 3.843223e-05 1.380208e-04
N 1.559078e+00 -9.464519e-01 1.785179e+00 -1.611037e-05 3.093811e-06 2.238534e-05
N 1.559649e+00 -9.526800e-01 6.963033e+00 1.199219e-04 5.080802e-05 5.848631e-05
N 1.516772e+00 -9.285146e-01 -3.357717e+00 4.709650e-05 -6.497817e-06 -1.255768e-04
N 3.144829e+00 1.739073e+00 1.764812e+00 2.348835e-05 -4.140986e-05 2.234038e-05
N 3.144749e+00 1.787059e+00 6.905661e+00 -4.873645e-05 -1.743845e-05 6.491473e-05
N 3.145517e+00 1.742599e+00 -3.353387e+00 -5.559868e-05 7.984810e-05 -1.669287e-04
N 6.272076e+00 -3.680488e+00 1.777268e+00 -2.903720e-05 -3.886125e-06 -1.489588e-04
N 6.317856e+00 -3.700451e+00 6.908982e+00 3.310828e-05 -9.382433e-06 3.002139e-05
N 6.280688e+00 -3.723364e+00 -3.316647e+00 -1.087251e-05 -1.394553e-05 -7.784798e-05
N 4.732771e+00 -9.489822e-01 1.852801e+00 3.687850e-05 1.089228e-05 -2.055374e-05
N 4.726489e+00 -9.515248e-01 6.965407e+00 -3.424028e-05 1.458703e-04 1.085547e-04
N 4.735290e+00 -9.077515e-01 -3.304136e+00 2.865241e-05 -3.116832e-05 1.659499e-05
N -3.238687e+00 1.760569e+00 1.752601e+00 -5.269342e-05 -6.791298e-05 -1.791190e-05
N -3.240018e+00 1.818362e+00 6.960834e+00 6.612720e-05 1.321081e-04 2.459815e-05
N -3.194882e+00 1.739971e+00 -3.344738e+00 6.889645e-05 4.037467e-05 3.242775e-06
N -2.972665e-02 -3.650451e+00 1.750500e+00 9.101903e-07 2.544554e-05 -7.365397e-05
N -2.139227e-02 -3.696937e+00 6.981350e+00 -7.253342e-05 -8.656296e-06 -5.237677e-06
N -2.700009e-02 -3.648624e+00 -3.360780e+00 -4.376452e-05 1.737139e-06 7.319315e-05
N -1.607631e+00 -1.000228e+00 1.769184e+00 4.432379e-05 7.382227e-05 -8.383515e-05
N -1.601469e+00 -1.006322e+00 6.948397e+00 -3.889694e-05 2.935080e-05 2.495108e-06
N -1.563959e+00 -9.328376e-01 -3.277632e+00 -4.962465e-05 2.225820e-05 -3.374363e-05
