108
Energy=-1169071.862315 Lattice="9.484546 0.000000 0.000000 -4.748826 8.209100 0.000000 0.001442 0.002259 15.291207" Stress="0.000001 -0.000002 -0.000000 -0.000002 -0.000002 0.000000 -0.000000 0.000000 0.000009" Properties=species:S:1:pos:R:3:forces:R:3
Al 1.563262 0.867485 2.408318 -0.000505 0.000576 0.000199
Al 1.565716 0.857358 7.498408 -0.000192 0.000586 -0.000864
Al 1.558747 0.864444 -2.709873 0.002770 0.000697 0.000960
Al -0.044608 3.623447 2.386662 0.009165 -0.003804 0.000663
Al -0.023883 3.610795 7.530112 -0.000618 -0.001296 -0.000363
Al -0.031008 3.619006 -2.719883 0.000010 0.000555 0.001691
Al 3.123519 -1.862631 2.407575 0.000804 0.000984 0.001135
Al 3.136042 -1.855306 7.510041 0.000068 0.000204 0.000333
Al 3.141913 -1.876387 -2.724315 0.000273 0.000197 0.000562
Al -4.788557 0.870809 2.425332 -0.000217 0.001654 0.001727
Al -4.778804 0.870101 7.494569 0.000594 0.000231 0.000855
Ga -4.781613 0.870108 -2.723033 0.000758 -0.000089 0.000706
Al -6.366224 3.596424 2.418418 0.001608 0.000750 -0.000350
Ga -6.342645 3.601230 7.498571 0.000208 0.000123 0.000238
Ga -6.360194 3.603313 -2.720423 0.000448 0.000260 0.001177
Ga -3.174540 -1.871605 2.423334 -0.000426 0.000622 0.000858
Ga -3.196003 -1.867762 7.475441 -0.000029 0.000245 0.000119
Al -3.192937 -1.873918 -2.699562 -0.000386 0.000013 0.000631
Al -1.609445 0.868140 2.425606 0.000297 -0.000044 -0.000415
Ga -1.606837 0.886593 7.500663 0.000651 0.000051 0.000476
Ga -1.603266 0.888954 -2.717219 0.000239 -0.000126 0.000698
Ga -3.182135 3.619054 2.435929 -0.000827 -0.000910 -0.000654
Al -3.188420 3.617949 7.498127 -0.000337 -0.000845 0.000217
Al -3.171563 3.622581 -2.720819 -0.000422 -0.000119 0.000540
Al -0.016445 -1.834005 2.415700 0.000377 -0.001412 0.000054
Al 0.010145 -1.864640 7.487838 -0.000871 0.000067 0.000031
Ga -0.000223 -1.857965 -2.697378 0.000196 -0.000673 0.001259
Ga -0.014866 1.783002 4.941925 0.000215 -0.000161 -0.000175
Al -0.003222 1.792756 -5.251602 0.000008 0.000526 0.002235
Ga -0.008885 1.782983 -0.134433 0.000099 0.001300 -0.000814
Ga 3.155258 -3.675591 4.983134 -0.001055 0.000901 0.000714
Al 3.140469 -3.689876 -5.263702 -0.000882 0.000005 0.000492
Al 3.150483 -3.679158 -0.169525 0.000220 0.000215 0.000033
Al 1.566142 -0.953059 4.955854 -0.000277 0.000280 0.000335
Al 1.572970 -0.948333 -5.264437 0.000642 -0.000515 0.000577
Al 1.571488 -0.952891 -0.141100 -0.000212 0.000793 -0.000304
Al 3.143692 1.776820 4.950173 0.000309 0.000019 0.000225
Al 3.127853 1.770328 -5.271284 0.001555 0.000465 -0.000421
Al 3.121637 1.782100 -0.129078 -0.000504 -0.000229 -0.000002
Al 6.310294 -3.704300 4.946299 0.000523 0.004863 0.000193
Al 6.287842 -3.691791 -5.238996 0.003271 -0.000937 -0.000453
Al 6.303109 -3.690462 -0.156636 -0.000866 -0.000252 0.000647
Al 4.712034 -0.937489 4.951365 0.000686 -0.000225 -0.000967
Al 4.708714 -0.956389 -5.253263 0.000169 0.000479 0.000677
Ga 4.714241 -0.964242 -0.144228 -0.000541 -0.000513 0.000827
Al -3.208073 1.770800 4.961187 0.000105 0.001326 -0.001214
Al -3.201804 1.798927 -5.266640 0.000236 0.000626 0.000170
Ga -3.191269 1.791831 -0.131840 -0.000164 -0.000030 0.000809
Al -0.026697 -3.677841 4.950678 -0.002326 0.001384 0.000385
Al -0.008004 -3.698086 -5.262426 0.002821 0.002587 0.000439
Ga -0.024093 -3.679975 -0.121304 -0.000042 0.000126 -0.003189
Al -1.585550 -0.952742 4.960045 -0.001953 -0.002186 -0.002181
Ga -1.597720 -0.961908 -5.261364 0.000253 -0.000036 0.000935
Al -1.597266 -0.953992 -0.137112 -0.000500 -0.000838 -0.000260
N 1.601162 0.842846 4.325025 0.000497 0.000518 -0.000772
N 1.555021 0.865325 -5.876156 -0.000080 0.000734 -0.000305
N 1.599736 0.843918 -0.781046 0.000135 0.000310 0.000440
N 0.007652 3.638565 4.291146 -0.000112 -0.000067 0.000722
N -0.023911 3.608437 -5.846832 0.000958 -0.000178 -0.000136
N -0.024692 3.652043 -0.790069 -0.000031 0.000346 -0.000302
N 3.137640 -1.821185 4.328595 -0.000176 -0.000654 -0.000978
N 3.141092 -1.863289 -5.860336 0.000365 -0.000032 -0.000288
N 3.099955 -1.886578 -0.796473 -0.000386 -0.000358 -0.000160
N -4.773095 0.873763 4.344907 -0.000047 0.000580 0.000056
N -4.768903 0.865916 -5.867434 0.000141 -0.000454 -0.000312
N -4.813887 0.896436 -0.750803 0.000587 0.000422 0.000224
N -6.346728 3.602551 4.350179 -0.000785 0.000112 -0.000764
N -6.334732 3.606578 -5.809090 -0.007203 0.001234 0.000048
N -6.385632 3.579887 -0.735828 -0.000084 0.000429 -0.000020
N -3.177286 -1.856129 4.408776 -0.000088 -0.004056 0.000629
N -3.226379 -1.887701 -5.844815 -0.000099 -0.001261 -0.000216
N -3.140075 -1.885843 -0.772035 0.000077 -0.000171 0.000319
N -1.648881 0.844219 4.342157 -0.000202 0.002661 0.000587
N -1.600871 0.925416 -5.819001 -0.000952 -0.000450 0.000628
N -1.607098 0.834161 -0.747323 0.000079 0.000006 0.000546
N -3.223922 3.600506 4.403767 0.002678 -0.004138 -0.000938
N -3.188017 3.609397 -5.874024 0.000317 0.000050 -0.000561
N -3.151078 3.637688 -0.797690 0.000235 -0.000409 0.000416
N -0.011556 -1.853701 4.344246 -0.000502 -0.000187 -0.001228
N 0.031523 -1.883347 -5.887670 -0.001438 -0.002214 0.000427
N -0.013987 -1.812263 -0.720272 -0.000020 -0.000518 -0.000750
N -0.032631 1.787854 1.856747 0.001497 -0.001079 0.000301
N 0.021861 1.809528 6.919313 0.000218 0.001107 0.000004
N 0.029640 1.810192 -3.318084 -0.001227 0.000042 -0.004015
N 3.185318 -3.667346 1.762373 -0.005865 0.004194 -0.001142
N 3.150958 -3.686137 6.964915 0.000581 0.000284 -0.000777
N 3.142769 -3.691041 -3.332807 0.000515 0.000507 -0.000977
N 1.561298 -0.948229 1.786479 0.000487 -0.000273 0.000632
N 1.569303 -0.952628 6.883339 -0.000126 0.000015 -0.000858
N 1.607388 -0.928629 -3.344961 -0.000486 0.000440 -0.000914
N 3.131460 1.784170 1.797914 0.000228 0.000247 0.000903
N 3.135382 1.735558 6.871414 -0.000258 0.000212 -0.000753
N 3.091268 1.759199 -3.373012 -0.001222 -0.000858 0.001169
N 6.303272 -3.735222 1.766084 -0.001136 0.000309 0.000980
N 6.259835 -3.724874 6.856194 0.000715 0.000056 -0.001795
N 6.259546 -3.661814 -3.329050 0.000245 -0.000336 -0.000596
N 4.676780 -0.933106 1.845731 0.000694 -0.000969 -0.003515
N 4.673525 -0.923536 6.868653 -0.000515 -0.000863 -0.000785
N 4.724077 -1.000541 -3.330883 -0.000693 -0.000463 -0.000125
N -3.198891 1.741801 1.852849 0.001131 0.000588 -0.002323
N -3.233700 1.807902 6.878701 0.000043 -0.000262 -0.000509
N -3.194099 1.838251 -3.357070 -0.000160 -0.000471 -0.000129
N -0.058496 -3.653127 1.847810 -0.002187 -0.001823 0.002699
N 0.019433 -3.662597 6.868386 -0.000352 0.000386 -0.000384
N 0.022495 -3.705585 -3.349129 -0.000322 -0.000280 0.000062
N -1.565175 -0.922703 1.780973 -0.000496 -0.000880 0.001443
N -1.552508 -0.972553 6.862174 0.000376 -0.000284 0.002007
N -1.636205 -0.978427 -3.298349 -0.000978 -0.000274 -0.000107
