108
Energy=-9.859700e+05 Lattice="9.463461e+00 0.000000e+00 0.000000e+00 -4.737030e+00 8.195876e+00 0.000000e+00 1.394570e-02 9.508750e-03 1.521642e+01" Stress="3.928384e-04 -4.006309e-05 7.830182e-04 -3.166487e-05 4.764540e-04 2.836304e-04 7.774646e-04 2.970549e-04 -5.994104e-04" Properties=species:S:1:pos:R:3:forces:R:3 Config_type=AlGaN_super3_12_2_11.xyz
Al 1.556244e+00 8.677966e-01 2.425361e+00 1.459194e-03 8.127916e-03 9.731029e-04
Al 1.561905e+00 8.750958e-01 7.447597e+00 3.098118e-04 -5.313955e-05 2.377721e-04
Al 1.547943e+00 8.662237e-01 -2.713874e+00 5.661433e-05 3.439598e-04 -6.873637e-04
Al -1.962666e-02 3.599265e+00 2.386323e+00 1.146001e-05 1.064866e-03 4.047181e-04
Al -1.096059e-02 3.597314e+00 7.433937e+00 -1.000500e-03 1.692381e-04 1.596470e-04
Al -2.896116e-02 3.591647e+00 -2.663215e+00 5.201478e-04 -3.405896e-04 1.044926e-03
Al 3.144434e+00 -1.864543e+00 2.391015e+00 1.413841e-03 -5.444985e-04 -9.570547e-04
Al 3.138203e+00 -1.848960e+00 7.461561e+00 -1.568104e-03 -1.655475e-03 -2.617219e-04
Al 3.130123e+00 -1.859142e+00 -2.680453e+00 5.272659e-05 1.455080e-04 4.345499e-04
Al -4.751043e+00 8.768572e-01 2.392720e+00 6.755521e-04 3.637834e-05 -1.253494e-04
Al -4.754737e+00 8.846199e-01 7.457813e+00 -7.332064e-06 4.377431e-04 6.105612e-04
Al -4.767721e+00 8.673758e-01 -2.692263e+00 4.648500e-04 1.073013e-05 2.447763e-04
Al -6.331605e+00 3.606430e+00 2.386587e+00 -2.669937e-03 -1.805204e-03 6.440890e-04
Al -6.343676e+00 3.591781e+00 7.457002e+00 -1.528109e-04 -2.446240e-04 6.593068e-04
Ga -6.340785e+00 3.595452e+00 -2.678607e+00 2.174973e-04 -5.767124e-04 2.945301e-04
Al -3.180024e+00 -1.861239e+00 2.384623e+00 1.082459e-03 3.177120e-05 -4.236572e-06
Ga -3.162432e+00 -1.862264e+00 7.467781e+00 6.133804e-04 -2.627123e-04 2.940037e-04
Ga -3.186363e+00 -1.863011e+00 -2.691536e+00 -1.357312e-04 2.173317e-04 2.049142e-03
Al -1.600824e+00 8.852447e-01 2.382875e+00 -1.016369e-03 -2.384782e-03 4.431796e-04
Al -1.592719e+00 8.799251e-01 7.453614e+00 9.025002e-04 2.984120e-04 9.106973e-04
Ga -1.602585e+00 8.880286e-01 -2.683348e+00 1.628193e-03 -6.420152e-04 6.574532e-04
Al -3.164750e+00 3.598164e+00 2.380658e+00 -1.252828e-03 3.114596e-04 -4.244771e-05
Ga -3.166633e+00 3.601135e+00 7.446627e+00 3.500320e-04 -1.153713e-04 3.615207e-04
Al -3.177743e+00 3.604565e+00 -2.666513e+00 -1.901586e-04 -8.250995e-04 -6.112215e-04
Ga -1.526250e-02 -1.850441e+00 2.386691e+00 -1.337159e-03 -7.490548e-04 2.467712e-03
Al -5.883291e-03 -1.831746e+00 7.451895e+00 1.587080e-04 -1.274221e-03 -6.233402e-04
Al -9.561174e-03 -1.851336e+00 -2.679655e+00 6.187803e-04 -4.393491e-04 5.459942e-04
Al -2.251650e-02 1.780070e+00 4.918653e+00 -1.102086e-03 6.661648e-05 2.126983e-04
Al -2.105594e-02 1.777294e+00 -5.243719e+00 -7.555540e-04 -1.120541e-05 -1.293923e-04
Al -3.103345e-02 1.786002e+00 -1.154263e-01 -8.239422e-04 6.019013e-04 -5.182533e-03
Al 3.148595e+00 -3.689193e+00 4.908427e+00 -7.263090e-04 2.195681e-04 -4.721544e-04
Ga 3.153878e+00 -3.685609e+00 -5.205723e+00 -8.977719e-04 -6.054701e-05 5.166838e-04
Al 3.135922e+00 -3.692696e+00 -1.480287e-01 7.309091e-04 9.145566e-04 -1.375918e-03
Al 1.572047e+00 -9.402121e-01 4.936105e+00 -3.771995e-03 -1.587831e-03 -4.743188e-04
Al 1.555627e+00 -9.398364e-01 -5.224321e+00 -7.688245e-04 3.919446e-04 2.649652e-04
Ga 1.556205e+00 -9.431697e-01 -1.511074e-01 4.965054e-04 9.562519e-05 -1.485726e-03
Al 3.128211e+00 1.782745e+00 4.916796e+00 2.834518e-05 6.902602e-04 9.376247e-04
Al 3.121857e+00 1.766577e+00 -5.235900e+00 1.966472e-04 -7.931242e-05 3.165900e-04
Ga 3.123090e+00 1.777096e+00 -1.362730e-01 3.891006e-04 2.636222e-04 2.434512e-03
Al 6.287474e+00 -3.694166e+00 4.906678e+00 7.083289e-04 2.783899e-04 2.158278e-04
Al 6.278300e+00 -3.700762e+00 -5.228314e+00 -1.911656e-04 1.064085e-03 -8.060357e-04
Al 6.275892e+00 -3.677478e+00 -1.234716e-01 -6.849356e-04 -3.250591e-04 8.889378e-04
Ga 4.711870e+00 -9.516601e-01 4.917782e+00 2.103700e-04 1.072170e-03 6.548397e-04
Al 4.702577e+00 -9.401849e-01 -5.227004e+00 3.547113e-04 2.224914e-04 -3.459723e-04
Al 4.719084e+00 -9.530443e-01 -1.349433e-01 -1.416223e-03 -1.422487e-04 1.214810e-03
Al -3.168276e+00 1.776670e+00 4.905264e+00 2.768765e-04 5.979359e-04 5.675703e-04
Al -3.188943e+00 1.760162e+00 -5.219741e+00 -5.839630e-05 8.602942e-04 -4.947278e-05
Al -3.182763e+00 1.780712e+00 -1.430175e-01 -7.893678e-04 1.724092e-03 2.397309e-03
Ga -2.542785e-02 -3.686046e+00 4.925714e+00 3.405888e-04 5.932659e-04 -1.144856e-05
Ga -3.437443e-02 -3.672500e+00 -5.225249e+00 -7.821652e-05 -4.676647e-04 2.667021e-04
Al -1.742023e-02 -3.680084e+00 -1.513560e-01 1.042137e-04 -3.215692e-04 1.902686e-03
Al -1.599619e+00 -9.306528e-01 4.924984e+00 1.821478e-03 -6.526253e-04 -6.465848e-04
Al -1.593909e+00 -9.393318e-01 -5.229343e+00 -1.007062e-03 9.528317e-05 -8.533818e-04
Al -1.611067e+00 -9.477772e-01 -1.435549e-01 -3.780146e-04 5.551609e-04 2.014368e-03
N 1.554437e+00 8.707712e-01 4.339940e+00 5.336197e-05 -2.685472e-04 -1.453499e-04
N 1.547918e+00 8.664582e-01 -5.840530e+00 5.367332e-04 -2.900112e-04 -2.214760e-04
N 1.503239e+00 9.026590e-01 -8.100357e-01 -5.065053e-04 -2.800676e-04 2.635842e-03
N -2.215529e-02 3.598570e+00 4.307102e+00 -4.869987e-05 -4.794684e-04 1.485019e-04
N 7.588067e-03 3.575920e+00 -5.867539e+00 5.400630e-04 -1.615864e-04 -1.165969e-03
N -2.415128e-02 3.595019e+00 -7.346404e-01 3.736831e-04 6.768494e-05 -9.173932e-04
N 3.097787e+00 -1.887045e+00 4.301556e+00 -3.939408e-04 -6.319407e-05 -1.575368e-03
N 3.127205e+00 -1.821947e+00 -5.839006e+00 9.564776e-05 -8.838307e-05 -3.494676e-04
N 3.172652e+00 -1.880442e+00 -7.612964e-01 1.242270e-03 -7.116513e-04 -1.157162e-03
N -4.753296e+00 9.176528e-01 4.301712e+00 2.633187e-04 -7.057608e-05 -3.506537e-04
N -4.760666e+00 8.728550e-01 -5.836158e+00 2.428104e-04 -3.649664e-04 -3.807471e-04
N -4.723569e+00 8.468551e-01 -7.704170e-01 8.775170e-04 -6.273570e-04 1.497972e-05
N -6.370273e+00 3.578832e+00 4.296688e+00 -8.018557e-04 1.456087e-04 -3.453324e-04
N -6.380080e+00 3.572416e+00 -5.841145e+00 -4.719383e-04 -1.836128e-04 -6.729391e-04
N -6.343417e+00 3.647274e+00 -7.074930e-01 -4.761566e-05 8.820878e-04 -5.975874e-04
N -3.131501e+00 -1.883574e+00 4.306421e+00 2.860493e-04 -2.885665e-04 -9.709759e-04
N -3.175498e+00 -1.867520e+00 -5.770758e+00 -4.782465e-04 3.144680e-04 1.389932e-03
N -3.180803e+00 -1.864323e+00 -7.015014e-01 4.344510e-04 5.119181e-05 -1.111767e-03
N -1.600151e+00 8.761553e-01 4.305511e+00 1.484177e-03 -2.255711e-04 -2.354573e-04
N -1.610881e+00 8.760205e-01 -5.832197e+00 7.248762e-04 -7.146401e-04 -3.652109e-04
N -1.612356e+00 8.793982e-01 -7.037692e-01 3.665001e-03 -1.316357e-03 1.790586e-03
N -3.139025e+00 3.582653e+00 4.300380e+00 1.211861e-03 -4.215184e-04 -3.406559e-04
N -3.178769e+00 3.556188e+00 -5.808775e+00 5.226683e-04 -8.734588e-04 3.185553e-04
N -3.182866e+00 3.598894e+00 -7.464991e-01 6.824316e-06 4.228817e-05 6.173645e-04
N -2.098363e-02 -1.814551e+00 4.353570e+00 2.190182e-03 2.698873e-03 1.779356e-03
N -2.138462e-02 -1.807226e+00 -5.850697e+00 6.993723e-04 1.781598e-04 -7.824629e-04
N -6.389138e-02 -1.874218e+00 -7.616524e-01 -3.284692e-04 -6.894707e-04 -2.038407e-04
N -1.019163e-02 1.778352e+00 1.796604e+00 -7.793450e-04 -4.536861e-04 1.350033e-03
N -1.891489e-02 1.779983e+00 6.843889e+00 -2.386098e-04 4.044655e-04 6.644297e-05
N 1.099491e-02 1.807379e+00 -3.324217e+00 -2.146833e-04 8.422920e-04 -1.334801e-03
N 3.143233e+00 -3.681870e+00 1.773826e+00 -1.032808e-03 1.252544e-04 1.429583e-03
N 3.181149e+00 -3.652256e+00 6.819312e+00 2.056265e-03 6.366883e-04 2.519673e-03
N 3.139606e+00 -3.687564e+00 -3.224486e+00 -2.702699e-04 3.603167e-04 7.164513e-04
N 1.611072e+00 -9.036171e-01 1.817842e+00 -1.669043e-03 -6.754165e-03 -1.003591e-03
N 1.576119e+00 -9.439753e-01 6.852041e+00 -1.303842e-03 1.542732e-06 -8.419926e-05
N 1.558761e+00 -9.554341e-01 -3.293197e+00 -5.181708e-04 1.595099e-04 -5.280978e-04
N 3.127954e+00 1.780135e+00 1.849862e+00 -4.002742e-04 -9.272551e-04 -2.584323e-03
N 3.138663e+00 1.784531e+00 6.845812e+00 -3.782239e-04 -2.823013e-04 -2.509276e-04
N 3.128091e+00 1.735381e+00 -3.315384e+00 2.183609e-05 -4.166147e-04 -7.059014e-04
N 6.287832e+00 -3.682642e+00 1.795218e+00 -2.200684e-04 3.683927e-04 -3.145040e-04
N 6.296682e+00 -3.722756e+00 6.823821e+00 -3.617122e-04 -5.194093e-04 -1.367649e-03
N 6.240926e+00 -3.711909e+00 -3.323990e+00 -7.457583e-04 -4.695608e-04 3.145808e-04
N 4.709953e+00 -9.455853e-01 1.795667e+00 4.418632e-04 2.432934e-04 -6.472664e-04
N 4.681319e+00 -9.227081e-01 6.890115e+00 4.046371e-05 4.077890e-04 -5.056307e-04
N 4.667144e+00 -9.273174e-01 -3.309489e+00 -9.106186e-04 1.079029e-04 -1.558070e-03
N -3.176407e+00 1.787350e+00 1.784929e+00 -8.089632e-04 -1.008001e-03 -1.802604e-03
N -3.172193e+00 1.736906e+00 6.822810e+00 -1.860653e-04 -1.146015e-03 -8.130059e-04
N -3.223893e+00 1.802871e+00 -3.303456e+00 -1.156499e-03 9.674959e-04 -3.427154e-05
N -1.703976e-02 -3.722652e+00 1.773637e+00 3.260861e-03 2.181645e-04 -1.390739e-03
N -6.202139e-02 -3.658321e+00 6.895653e+00 6.855327e-04 2.337444e-03 1.195477e-03
N 1.668598e-02 -3.655809e+00 -3.250506e+00 2.588302e-04 1.249619e-04 3.752979e-05
N -1.634238e+00 -9.274155e-01 1.772193e+00 -8.642429e-04 2.397905e-03 -1.409821e-03
N -1.556375e+00 -9.170264e-01 6.839629e+00 5.991233e-05 3.807289e-04 -9.132148e-04
N -1.556224e+00 -9.671308e-01 -3.320943e+00 -5.529925e-04 -3.101642e-04 -2.845903e-04
