108
Energy=-1443724.789828 Lattice="9.516388 0.000000 0.000000 -4.758382 8.240967 0.000000 -0.000013 -0.003350 15.362543" Stress="0.000001 -0.000000 0.000000 -0.000000 0.000001 -0.000000 -0.000000 -0.000000 -0.000001" Properties=species:S:1:pos:R:3:forces:R:3
Al 1.580402 0.868223 2.428638 -0.000093 0.000041 -0.000089
Al 1.565157 0.883041 7.533325 0.000141 -0.000033 0.000176
Al 1.562294 0.895367 -2.728756 0.000085 0.000093 0.000370
Al -0.035915 3.624686 2.408325 0.000022 0.000001 0.000085
Al -0.014376 3.621078 7.575513 -0.000148 -0.000182 0.000053
Al -0.019731 3.624236 -2.751326 -0.000035 0.000132 0.000030
Al 3.134512 -1.881104 2.404676 -0.000100 0.000000 0.000121
Al 3.155510 -1.871815 7.550806 -0.000035 0.000275 0.000157
Ga 3.152446 -1.886836 -2.714290 -0.000010 -0.000067 0.000150
Al -4.794187 0.890763 2.413180 -0.000142 0.000210 0.000284
Ga -4.787148 0.875722 7.552525 0.000004 -0.000023 0.000076
Ga -4.787917 0.887972 -2.730176 0.000131 0.000065 -0.000089
Ga -6.368218 3.602293 2.407268 -0.000042 -0.000009 -0.000001
Al -6.382563 3.613861 7.564234 0.000106 0.000064 0.000126
Al -6.371696 3.625599 -2.739360 0.000030 -0.000124 0.000148
Ga -3.196033 -1.875200 2.434657 -0.000059 -0.000050 0.000120
Al -3.198671 -1.880262 7.547396 0.000026 0.000189 0.000241
Al -3.194301 -1.887310 -2.739581 -0.000037 -0.000082 0.000178
Ga -1.615207 0.883732 2.419503 0.000157 -0.000030 0.000116
Al -1.607202 0.880211 7.539231 0.000074 0.000087 -0.000553
Ga -1.600682 0.888916 -2.715733 -0.000008 -0.000057 0.000060
Al -3.184262 3.621455 2.402822 0.000149 0.000121 -0.000016
Ga -3.187742 3.617761 7.560996 -0.000059 -0.000063 0.000014
Al -3.190674 3.629754 -2.727813 -0.000079 -0.000133 -0.000013
Al -0.005621 -1.864006 2.443234 0.000074 0.000098 0.000179
Ga -0.021851 -1.863408 7.534431 0.000030 -0.000056 0.000161
Al -0.024086 -1.883445 -2.733376 0.000025 -0.000105 0.000166
Ga -0.016429 1.780027 4.989938 -0.000164 0.000076 0.000036
Al -0.017879 1.807368 -5.285403 -0.000092 0.000027 -0.000467
Ga -0.013362 1.807150 -0.147453 0.000039 0.000011 0.000030
Ga 3.145364 -3.703069 4.980706 -0.000017 -0.000105 0.000178
Al 3.156118 -3.708342 -5.273004 -0.000140 -0.000245 0.000081
Al 3.146501 -3.723070 -0.151698 -0.000025 0.000058 0.000097
Al 1.569081 -0.946221 4.972024 -0.000012 0.000155 -0.000257
Ga 1.577335 -0.943020 -5.265741 0.000022 0.000056 0.000050
Ga 1.562729 -0.948689 -0.142264 -0.000135 0.000215 0.000084
Al 3.152335 1.781051 4.989213 -0.000033 -0.000187 0.000004
Al 3.142336 1.805128 -5.273302 0.000287 0.000015 -0.000024
Al 3.151550 1.789393 -0.161167 -0.000048 -0.000086 0.000144
Ga 6.324531 -3.713001 5.015007 -0.000048 -0.000075 0.000052
Al 6.319143 -3.707496 -5.275830 0.000102 -0.000180 0.000054
Ga 6.310185 -3.712022 -0.182349 0.000038 -0.000051 0.000001
Ga 4.724805 -0.940321 4.977983 0.000003 -0.000043 0.000061
Al 4.737711 -0.961873 -5.281695 -0.000050 0.000513 -0.000388
Ga 4.735779 -0.944149 -0.133760 -0.000168 0.000010 0.000083
Al -3.204652 1.786444 4.972395 0.000418 0.000070 0.000204
Al -3.193398 1.802560 -5.267044 -0.000295 0.000325 0.000304
Al -3.207682 1.811161 -0.149100 0.000035 -0.000009 -0.000061
Ga -0.020268 -3.707299 4.967538 0.000054 -0.000085 0.000060
Al -0.026231 -3.722357 -5.249537 -0.000078 -0.000032 0.000037
Ga -0.008690 -3.713972 -0.159805 0.000015 0.000002 0.000029
Al -1.603086 -0.945834 5.003031 -0.000002 -0.000016 0.000149
Ga -1.624595 -0.949660 -5.271164 -0.000017 -0.000049 0.000053
Ga -1.608149 -0.959002 -0.161773 -0.000052 -0.000130 -0.000037
N 1.610481 0.855364 4.352060 0.000087 -0.000081 -0.000179
N 1.566388 0.926144 -5.913333 -0.000007 -0.000162 -0.000055
N 1.603748 0.902083 -0.811833 -0.000118 0.000003 -0.000216
N -0.021578 3.622461 4.315301 0.000046 0.000000 -0.000059
N -0.022026 3.626736 -5.871181 -0.000032 -0.000028 0.000007
N -0.070448 3.644491 -0.833023 0.000050 -0.000061 -0.000026
N 3.106196 -1.855331 4.320570 0.000047 0.000115 -0.000083
N 3.186293 -1.894266 -5.894388 0.000024 0.000152 -0.000243
N 3.151405 -1.922692 -0.738383 0.000119 -0.000054 -0.000132
N -4.785444 0.929028 4.343482 -0.000115 0.000197 -0.000324
N -4.782832 0.882948 -5.825923 -0.000044 -0.000478 0.000161
N -4.780800 0.924262 -0.747485 0.000121 0.000005 -0.000055
N -6.373289 3.568886 4.375683 0.000039 -0.000027 -0.000059
N -6.364988 3.624381 -5.873187 0.000022 0.000049 -0.000021
N -6.363968 3.574363 -0.814137 -0.000013 0.000208 -0.000345
N -3.151712 -1.853437 4.403665 0.000023 0.000050 -0.000087
N -3.234128 -1.895852 -5.901531 -0.000035 0.000103 -0.000164
N -3.202573 -1.868659 -0.830506 -0.000017 0.000052 -0.000129
N -1.650964 0.852702 4.399894 -0.000145 0.000205 -0.000078
N -1.611663 0.928313 -5.902975 0.000239 0.000015 0.000549
N -1.650160 0.908262 -0.740504 0.000080 -0.000021 -0.000012
N -3.188366 3.573551 4.318379 -0.000079 -0.000426 0.000259
N -3.197158 3.626691 -5.827451 0.000095 -0.000164 0.000172
N -3.150922 3.600249 -0.799482 -0.000000 0.000035 0.000023
N -0.022738 -1.818240 4.369426 -0.000065 0.000024 -0.000136
N -0.020028 -1.918324 -5.859301 0.000005 0.000004 -0.000158
N -0.017712 -1.874719 -0.828995 -0.000007 -0.000077 -0.000160
N 0.025916 1.811632 1.837383 0.000038 -0.000033 -0.000006
N -0.020755 1.795542 6.979721 -0.000334 0.000156 -0.000080
N 0.019292 1.813818 -3.364879 0.000004 0.000045 0.000098
N 3.149266 -3.710137 1.783646 0.000076 0.000019 -0.000211
N 3.194207 -3.682180 6.963043 0.000092 -0.000172 -0.000057
N 3.149090 -3.748228 -3.361867 0.000169 0.000092 -0.000078
N 1.557748 -0.952992 1.846601 0.000065 0.000168 -0.000065
N 1.611851 -0.930836 6.901936 0.000086 -0.000037 0.000418
N 1.528563 -0.924901 -3.293314 0.000031 -0.000206 -0.000195
N 3.143814 1.739655 1.759260 -0.000007 -0.000158 0.000215
N 3.109494 1.815880 6.910896 0.000088 -0.000057 -0.000183
N 3.104899 1.817549 -3.362335 -0.000032 0.000175 -0.000035
N 6.278912 -3.726631 1.792421 -0.000012 -0.000009 -0.000050
N 6.319317 -3.710559 6.998486 0.000042 0.000087 -0.000154
N 6.323389 -3.703423 -3.346068 0.000002 0.000024 -0.000036
N 4.696050 -0.930467 1.848835 0.000068 -0.000084 -0.000092
N 4.732732 -1.000291 6.958296 -0.000024 0.000017 0.000006
N 4.773624 -0.977982 -3.370268 -0.000079 -0.000040 0.000082
N -3.242046 1.817244 1.772945 0.000074 -0.000070 0.000057
N -3.160270 1.770291 6.888179 -0.000042 0.000102 -0.000169
N -3.192043 1.839937 -3.364245 -0.000061 -0.000089 -0.000418
N 0.019408 -3.673444 1.832967 -0.000133 -0.000031 -0.000105
N -0.064496 -3.732681 6.939467 -0.000059 0.000001 -0.000077
N -0.021837 -3.708002 -3.325181 -0.000022 0.000008 -0.000045
N -1.563712 -0.984287 1.810393 -0.000091 -0.000012 0.000016
N -1.650642 -0.930297 6.923767 -0.000036 -0.000139 0.000033
N -1.610300 -0.995736 -3.299211 -0.000070 0.000000 -0.000126
