108
Energy=-1443724.746743 Lattice="9.517323 0.000000 0.000000 -4.763102 8.238823 0.000000 -0.006398 0.006455 15.365340" Stress="0.000000 -0.000001 -0.000002 -0.000001 -0.000002 0.000001 -0.000002 0.000001 0.000002" Properties=species:S:1:pos:R:3:forces:R:3
Al 1.563640 0.883797 2.435832 -0.000347 -0.000158 -0.000020
Al 1.549523 0.874585 7.510046 0.000042 -0.000066 0.000062
Al 1.567630 0.877708 -2.712813 -0.000012 -0.000135 0.000123
Al -0.026963 3.615596 2.427343 0.000073 0.000412 0.000289
Al -0.042414 3.604734 7.512018 0.000073 -0.000027 0.000123
Al -0.003507 3.615956 -2.694241 -0.000106 0.000079 0.000323
Al 3.152724 -1.866794 2.429419 -0.000020 -0.000178 -0.000306
Ga 3.129148 -1.864281 7.545300 -0.000019 0.000015 0.000170
Ga 3.157592 -1.853908 -2.729560 0.000113 -0.000008 0.000082
Ga -4.797881 0.875415 2.415734 0.000067 -0.000043 0.000216
Al -4.779941 0.890908 7.536016 0.000020 0.000043 -0.000623
Al -4.788043 0.869949 -2.713697 0.001420 -0.000561 0.001065
Ga -6.383020 3.609031 2.393818 -0.000093 0.000033 0.000301
Ga -6.367725 3.612359 7.551047 -0.000076 -0.000049 0.000011
Al -6.368670 3.624371 -2.703151 0.000370 0.000035 0.000083
Ga -3.195961 -1.866509 2.390303 0.000030 -0.000065 0.000220
Ga -3.186050 -1.853241 7.554747 -0.000138 -0.000078 0.000095
Al -3.187507 -1.869826 -2.706738 0.000106 0.000671 0.000131
Al -1.597208 0.873986 2.440204 -0.000020 -0.000161 -0.000054
Al -1.611412 0.883933 7.525288 -0.000089 0.000101 0.000034
Ga -1.606182 0.863765 -2.729401 0.000033 -0.000116 0.000092
Ga -3.182451 3.625181 2.434429 -0.000154 0.000006 0.000118
Al -3.193518 3.612764 7.535200 -0.000280 -0.000409 0.000288
Ga -3.214607 3.618002 -2.720572 0.000123 -0.000053 -0.000020
Ga -0.021091 -1.850612 2.418287 -0.000194 -0.000073 0.000256
Al -0.019640 -1.845940 7.542528 0.000292 -0.000495 0.000247
Al -0.030909 -1.870899 -2.725490 -0.000547 -0.000255 0.000524
Al -0.031244 1.783897 4.969160 0.000068 0.000141 0.000094
Ga -0.025096 1.774365 -5.287586 0.000010 0.000129 0.000207
Ga -0.009476 1.788784 -0.125780 -0.000155 0.000038 0.000001
Al 3.149010 -3.706220 4.982447 0.000101 -0.000039 -0.000132
Ga 3.145464 -3.709098 -5.278004 -0.000252 -0.000143 0.000024
Ga 3.167075 -3.694471 -0.135366 -0.000207 0.000267 -0.000045
Al 1.558254 -0.941107 4.972987 0.000063 -0.000057 0.000273
Al 1.547873 -0.955247 -5.273457 -0.000049 -0.000157 0.000162
Ga 1.563961 -0.949757 -0.144565 -0.000240 0.000034 0.000183
Al 3.138370 1.779028 4.993806 0.000009 -0.000024 0.000106
Ga 3.163453 1.769272 -5.259521 -0.000048 0.000009 0.000182
Al 3.148537 1.793383 -0.181203 0.000187 -0.000043 -0.000023
Ga 6.311718 -3.708759 4.978545 -0.000068 0.000052 -0.000175
Ga 6.324888 -3.693809 -5.240620 -0.000044 -0.000004 0.000336
Al 6.334556 -3.695966 -0.176212 -0.000041 0.000051 0.000049
Ga 4.726364 -0.944988 4.980354 -0.000166 -0.000061 0.000089
Al 4.751193 -0.937313 -5.264351 -0.000425 0.000063 -0.000045
Al 4.746820 -0.951893 -0.158451 -0.000030 0.000093 0.000077
Al -3.187055 1.787733 4.996487 0.000112 0.000102 0.000029
Al -3.203510 1.774257 -5.293959 -0.000009 0.001093 -0.000722
Ga -3.208589 1.777168 -0.144257 0.000093 -0.000090 0.000062
Ga -0.013279 -3.693954 5.004983 0.000062 0.000109 0.000037
Al -0.011620 -3.686969 -5.279114 0.000573 -0.000097 0.000421
Al -0.042092 -3.694187 -0.167697 0.000024 -0.000009 -0.000053
Al -1.597224 -0.930965 4.993946 -0.000179 0.000002 0.000075
Al -1.598919 -0.960209 -5.271615 0.000181 0.000333 0.000068
Al -1.613641 -0.967774 -0.167011 -0.000001 -0.000134 0.000084
N 1.564269 0.882671 4.366806 0.000064 -0.000096 -0.000209
N 1.567950 0.825919 -5.938119 0.000079 0.000019 -0.000131
N 1.596819 0.895333 -0.806362 0.000160 0.000025 -0.000177
N -0.069527 3.598523 4.347758 -0.000038 -0.000063 -0.000188
N -0.019698 3.617869 -5.949247 0.000191 0.000025 -0.000235
N 0.015018 3.636640 -0.789217 0.000119 -0.000002 0.000056
N 3.105706 -1.893737 4.354959 0.000025 0.000193 -0.000157
N 3.149936 -1.820835 -5.835932 0.000150 0.000081 -0.000018
N 3.190375 -1.843681 -0.761011 0.000104 0.000060 -0.000103
N -4.786472 0.931411 4.393974 0.000199 0.000002 -0.000049
N -4.743508 0.851882 -5.918008 0.000098 -0.000311 0.000738
N -4.819836 0.849605 -0.790635 -0.000057 0.000081 -0.000307
N -6.368062 3.574154 4.375355 0.000172 -0.000071 -0.000067
N -6.330344 3.638489 -5.848119 -0.000332 -0.000237 -0.000240
N -6.365745 3.622810 -0.772923 -0.000071 -0.000086 -0.000155
N -3.149640 -1.841457 4.369837 0.000185 0.000141 -0.000036
N -3.189238 -1.826241 -5.839059 -0.000057 -0.000092 -0.000220
N -3.193848 -1.865125 -0.770721 -0.000021 -0.000045 -0.000128
N -1.614720 0.875125 4.371190 0.000217 -0.000143 -0.000175
N -1.648872 0.845831 -5.912124 0.000119 -0.000277 0.000007
N -1.605289 0.832155 -0.760062 0.000098 -0.000088 -0.000161
N -3.162485 3.598355 4.410058 0.000083 -0.000094 -0.000099
N -3.237488 3.592203 -5.905827 -0.000096 -0.000143 0.000176
N -3.236861 3.646098 -0.746457 -0.000082 -0.000176 -0.000068
N -0.028804 -1.820579 4.393814 0.000082 0.000091 -0.000106
N -0.019346 -1.865297 -5.894041 -0.000060 -0.000265 0.000176
N -0.059820 -1.889655 -0.795587 0.000118 -0.000078 -0.000242
N -0.021690 1.789512 1.868325 0.000230 -0.000342 -0.000169
N -0.029894 1.788886 6.903578 0.000012 0.000051 -0.000110
N 0.021404 1.814762 -3.309103 0.000214 0.000142 -0.000016
N 3.197710 -3.674121 1.842649 -0.000148 -0.000160 -0.000305
N 3.145844 -3.741756 6.906667 0.000237 0.000199 -0.000134
N 3.197370 -3.733726 -3.309608 0.000144 0.000097 0.000027
N 1.607249 -0.924191 1.839229 -0.000108 0.000105 -0.000198
N 1.519940 -0.929165 6.892127 -0.000073 0.000080 -0.000288
N 1.514844 -0.928784 -3.349547 0.000294 0.000342 -0.000274
N 3.101559 1.762823 1.737937 -0.000004 0.000022 0.000072
N 3.144059 1.744441 6.909739 0.000034 -0.000021 0.000003
N 3.154235 1.787071 -3.273262 -0.001145 0.000725 -0.000110
N 6.278331 -3.726586 1.748345 -0.000110 -0.000006 -0.000045
N 6.280708 -3.719437 6.944355 0.000067 0.000021 -0.000265
N 6.325720 -3.701631 -3.256365 -0.000013 -0.000076 -0.000193
N 4.693319 -0.974717 1.761045 -0.000109 0.000054 0.000092
N 4.730273 -0.907784 6.943961 -0.000020 0.000064 -0.000170
N 4.786543 -0.927065 -3.346753 0.000154 -0.000169 -0.000185
N -3.153149 1.764545 1.825968 -0.000172 -0.000044 -0.000059
N -3.197243 1.791483 6.924226 0.000060 -0.000053 -0.000277
N -3.238412 1.763352 -3.376813 -0.000332 -0.000139 0.000230
N -0.019264 -3.696362 1.747389 -0.000088 0.000120 -0.000233
N 0.018829 -3.668279 6.976573 -0.000151 0.000244 -0.000092
N -0.061432 -3.674562 -3.354079 -0.000146 0.000028 -0.000126
N -1.604818 -0.902466 1.748540 -0.000049 0.000184 -0.000083
N -1.568104 -0.925704 6.910360 -0.000078 0.000098 -0.000100
N -1.604995 -1.006278 -3.353599 -0.000388 -0.000140 -0.000068
