108
Energy=-1.260623e+06 Lattice="9.493265e+00 0.000000e+00 0.000000e+00 -4.747490e+00 8.219513e+00 0.000000e+00 -2.101666e-03 4.103075e-03 1.531044e+01" Stress="-2.644913e-06 -8.314656e-05 -3.791153e-05 -8.011757e-05 -3.492885e-04 2.179617e-04 -5.168301e-05 2.277931e-04 -1.121539e-04" Properties=species:S:1:pos:R:3:forces:R:3 Config_type=AlGaN_super3_18_1_28.xyz
Al 1.562269e+00 8.754461e-01 2.417279e+00 1.232431e-04 5.665286e-05 -1.586586e-04
Al 1.559110e+00 8.854889e-01 7.514550e+00 -7.206377e-05 -7.481521e-05 3.974682e-05
Al 1.552032e+00 8.692113e-01 -2.730872e+00 2.339595e-04 7.197217e-05 -9.977688e-05
Al -2.357921e-02 3.607291e+00 2.428517e+00 -7.118262e-05 -4.979769e-05 -1.744780e-04
Al -2.318696e-02 3.607399e+00 7.497368e+00 -5.591222e-05 -9.903707e-05 1.103956e-04
Al -1.320230e-02 3.600535e+00 -2.716627e+00 -9.564934e-05 1.351787e-04 -3.847219e-04
Al 3.138783e+00 -1.861777e+00 2.393174e+00 -8.305640e-05 2.203861e-04 -1.205974e-04
Al 3.137127e+00 -1.864437e+00 7.530348e+00 -1.757043e-04 -7.138992e-05 -6.992382e-05
Ga 3.134955e+00 -1.852754e+00 -2.712897e+00 -4.346746e-05 4.279341e-06 8.121670e-05
Al -4.774803e+00 8.775690e-01 2.418102e+00 -1.716754e-04 -2.121132e-05 -1.044996e-04
Al -4.786845e+00 8.816746e-01 7.501531e+00 -1.390570e-04 -6.065865e-05 8.612676e-05
Al -4.780428e+00 8.659101e-01 -2.704044e+00 2.720143e-05 1.014494e-06 1.135665e-04
Ga -6.360686e+00 3.598310e+00 2.433929e+00 -1.637210e-04 -7.083088e-05 -8.838871e-05
Al -6.356772e+00 3.604296e+00 7.503959e+00 2.643248e-06 -3.121054e-05 4.041028e-06
Ga -6.360602e+00 3.605483e+00 -2.725406e+00 4.120589e-05 4.560228e-05 2.554047e-05
Ga -3.198718e+00 -1.869564e+00 2.410962e+00 -2.675312e-05 -4.220970e-06 5.905458e-05
Ga -3.188860e+00 -1.868534e+00 7.509549e+00 4.803525e-05 1.117900e-05 5.663034e-05
Ga -3.198726e+00 -1.872261e+00 -2.699241e+00 -1.247532e-04 -9.516684e-08 5.445266e-06
Ga -1.602204e+00 8.907904e-01 2.407808e+00 1.110779e-04 5.532483e-06 -9.963477e-05
Al -1.591416e+00 8.814522e-01 7.484172e+00 -3.872559e-06 -3.726924e-05 1.388232e-04
Ga -1.588124e+00 8.855960e-01 -2.677332e+00 1.774844e-04 2.374889e-05 -9.927537e-06
Al -3.178078e+00 3.605217e+00 2.441159e+00 2.283803e-05 7.599507e-05 -1.797618e-04
Ga -3.185274e+00 3.623693e+00 7.496626e+00 7.803631e-05 -6.923136e-05 4.010404e-05
Ga -3.185290e+00 3.616884e+00 -2.718403e+00 2.138748e-05 2.947426e-05 5.109957e-05
Ga -6.707355e-03 -1.857324e+00 2.424510e+00 -1.177098e-05 1.270514e-04 4.325488e-05
Al -1.899934e-02 -1.862944e+00 7.502440e+00 -1.145709e-04 4.070042e-04 1.234872e-04
Al -6.850783e-03 -1.856557e+00 -2.704344e+00 4.660487e-05 -1.390359e-04 5.589735e-05
Al -1.968770e-02 1.798777e+00 4.968509e+00 3.975401e-05 3.316654e-05 4.328672e-05
Al -7.741531e-03 1.798800e+00 -5.276338e+00 -6.462716e-05 -1.200562e-05 -7.298186e-06
Al -1.181023e-02 1.787457e+00 -1.459244e-01 3.670363e-05 1.419699e-05 -1.581664e-05
Al 3.149375e+00 -3.699466e+00 4.945805e+00 2.776428e-05 1.409590e-04 -2.777231e-05
Al 3.161498e+00 -3.687225e+00 -5.266485e+00 1.455612e-04 8.666786e-05 -2.467078e-05
Ga 3.160125e+00 -3.701810e+00 -1.271065e-01 -1.124403e-04 1.078446e-04 3.151209e-05
Ga 1.561077e+00 -9.455486e-01 4.981666e+00 -7.659035e-05 5.669367e-05 5.425666e-05
Al 1.561664e+00 -9.520055e-01 -5.281134e+00 -1.497931e-05 -7.475448e-05 1.052971e-04
Al 1.552139e+00 -9.357278e-01 -1.481213e-01 9.753562e-05 -4.446041e-05 -1.286671e-04
Al 3.138249e+00 1.797013e+00 4.972202e+00 1.021567e-04 -1.517831e-04 -7.559367e-05
Al 3.134436e+00 1.780066e+00 -5.271318e+00 -3.807520e-05 2.180204e-05 4.316751e-05
Ga 3.134135e+00 1.763852e+00 -1.496382e-01 -5.375992e-05 8.280616e-05 -9.296170e-06
Al 6.304692e+00 -3.708106e+00 4.980330e+00 2.321837e-05 -3.055808e-04 -2.576997e-05
Al 6.297085e+00 -3.711442e+00 -5.278466e+00 -2.699368e-05 -1.446979e-04 5.067891e-05
Al 6.289326e+00 -3.694041e+00 -1.447615e-01 -6.031574e-06 -7.237034e-06 4.221462e-05
Ga 4.719549e+00 -9.460946e-01 4.963227e+00 -1.304255e-04 -1.273226e-05 -8.586046e-06
Al 4.705880e+00 -9.511053e-01 -5.270373e+00 5.312943e-05 -9.037533e-06 -1.095994e-04
Al 4.729955e+00 -9.430447e-01 -1.319703e-01 -2.441380e-04 -7.801409e-05 -1.354472e-04
Al -3.188966e+00 1.792231e+00 4.965090e+00 -9.505502e-05 -7.689015e-05 -3.250697e-05
Ga -3.194068e+00 1.781171e+00 -5.271873e+00 6.552057e-05 -6.391878e-05 3.034804e-05
Al -3.190450e+00 1.772949e+00 -1.319696e-01 5.291652e-05 8.239137e-05 5.338796e-05
Al -2.853381e-02 -3.699824e+00 4.972453e+00 3.389809e-05 -7.196576e-05 3.511162e-05
Al -2.795151e-02 -3.683553e+00 -5.273312e+00 -3.383052e-05 -7.270571e-05 1.022139e-04
Ga -2.191325e-02 -3.681691e+00 -1.371257e-01 1.129376e-04 -5.103692e-05 4.457843e-06
Al -1.601478e+00 -9.465213e-01 4.985399e+00 -4.736425e-05 -3.333615e-04 3.396340e-05
Ga -1.589069e+00 -9.572968e-01 -5.258862e+00 -5.348321e-05 1.991178e-05 4.793029e-05
Al -1.602192e+00 -9.500010e-01 -1.612979e-01 3.111115e-05 -6.046526e-05 2.409115e-07
N 1.557406e+00 9.228865e-01 4.337890e+00 -7.684288e-05 -4.387012e-05 4.746089e-05
N 1.558961e+00 8.776666e-01 -5.875603e+00 6.628333e-05 -3.152408e-05 2.059820e-05
N 1.514223e+00 8.492821e-01 -8.055189e-01 -5.211906e-05 7.426823e-05 1.057600e-04
N -1.786466e-02 3.611292e+00 4.350650e+00 -1.109579e-04 -2.745734e-05 -3.631329e-05
N -2.539989e-02 3.610376e+00 -5.894465e+00 2.110416e-06 -1.566647e-05 4.394024e-06
N 1.720867e-02 3.585910e+00 -7.955666e-01 -8.513701e-06 -8.775523e-05 1.274371e-04
N 3.137025e+00 -1.906161e+00 4.302695e+00 1.805400e-05 -1.176534e-04 -6.367834e-05
N 3.140749e+00 -1.871335e+00 -5.861835e+00 2.789846e-06 7.108593e-05 -4.978332e-05
N 3.141895e+00 -1.819358e+00 -7.240104e-01 -3.838011e-06 4.517517e-05 -7.740140e-06
N -4.771444e+00 9.263694e-01 4.334173e+00 5.727841e-05 4.658115e-05 1.634898e-04
N -4.814971e+00 8.526037e-01 -5.901496e+00 3.772412e-06 -3.393950e-05 -2.034628e-05
N -4.728396e+00 8.473340e-01 -7.835422e-01 4.979701e-05 -7.822541e-05 -5.749378e-05
N -6.356616e+00 3.613777e+00 4.412205e+00 7.244247e-05 1.610729e-04 -7.582972e-05
N -6.350055e+00 3.607949e+00 -5.874003e+00 -2.274935e-05 -1.251922e-05 -4.116359e-05
N -6.394048e+00 3.633353e+00 -7.494172e-01 -5.172031e-05 7.918493e-05 -2.894381e-06
N -3.144669e+00 -1.892319e+00 4.394640e+00 8.464632e-05 2.653097e-04 9.084982e-07
N -3.226239e+00 -1.890808e+00 -5.830319e+00 -7.460756e-05 1.258192e-04 2.685921e-05
N -3.194026e+00 -1.869261e+00 -7.074298e-01 4.836885e-05 -1.986821e-05 -1.853056e-05
N -1.602586e+00 8.765468e-01 4.400013e+00 -8.319462e-05 2.663098e-04 -3.768300e-05
N -1.559352e+00 8.983560e-01 -5.914485e+00 9.646800e-05 5.497058e-05 -1.244644e-05
N -1.600653e+00 8.832567e-01 -6.919651e-01 -9.636239e-07 1.092947e-05 8.468694e-05
N -3.187847e+00 3.612514e+00 4.369551e+00 2.264740e-05 -5.520744e-05 -5.520354e-05
N -3.182554e+00 3.663318e+00 -5.838430e+00 -1.403658e-04 -2.181969e-05 -4.308655e-05
N -3.183580e+00 3.566925e+00 -7.472305e-01 3.159922e-05 -7.693831e-05 -4.018637e-05
N -6.128865e-02 -1.883930e+00 4.395107e+00 4.082158e-05 -6.385525e-05 -9.595404e-05
N 1.798554e-02 -1.890940e+00 -5.901366e+00 1.213816e-04 7.326791e-05 -2.364417e-05
N -1.420058e-02 -1.820065e+00 -7.829474e-01 -2.774477e-05 8.766504e-05 -5.015063e-05
N 2.549099e-02 1.814308e+00 1.778304e+00 1.509051e-04 1.775933e-04 2.504182e-04
N -1.584592e-02 1.792131e+00 6.888304e+00 -3.953757e-05 -2.062047e-05 -3.263249e-05
N 1.625643e-02 1.810632e+00 -3.353624e+00 -1.099141e-04 3.209468e-05 1.052951e-05
N 3.145308e+00 -3.700996e+00 1.860565e+00 3.778593e-05 -5.130891e-05 1.909037e-04
N 3.187618e+00 -3.660764e+00 6.868041e+00 -5.302863e-05 1.264365e-04 3.849088e-06
N 3.191934e+00 -3.713083e+00 -3.352360e+00 1.033992e-04 -1.356295e-04 1.412504e-04
N 1.595761e+00 -9.210498e-01 1.774739e+00 8.033354e-05 9.957309e-05 1.715420e-04
N 1.565480e+00 -9.458330e-01 6.960132e+00 6.101201e-05 -1.154482e-04 9.942980e-05
N 1.517020e+00 -9.301348e-01 -3.357979e+00 -1.510137e-05 1.288803e-04 -2.927253e-04
N 3.139883e+00 1.735634e+00 1.826214e+00 -1.176484e-04 1.084226e-05 2.074712e-05
N 3.136073e+00 1.787087e+00 6.895232e+00 2.404330e-05 -3.534535e-05 -3.896568e-05
N 3.142524e+00 1.733637e+00 -3.344542e+00 -6.637296e-05 -8.928225e-05 5.730764e-05
N 6.261215e+00 -3.722020e+00 1.767318e+00 -6.677437e-05 -9.836073e-05 2.109879e-05
N 6.303409e+00 -3.743649e+00 6.890229e+00 1.068670e-04 1.384045e-04 -1.232101e-05
N 6.262572e+00 -3.718034e+00 -3.368846e+00 9.788281e-05 3.600743e-05 -3.228935e-05
N 4.684988e+00 -9.222361e-01 1.787470e+00 1.209429e-04 1.037941e-04 2.169588e-04
N 4.674811e+00 -9.270590e-01 6.931707e+00 6.326537e-06 -9.024029e-05 1.818720e-05
N 4.722149e+00 -9.053219e-01 -3.360322e+00 3.763435e-05 6.740454e-05 -4.299128e-05
N -3.233429e+00 1.812889e+00 1.790759e+00 3.417103e-05 -2.003094e-04 -2.453770e-05
N -3.193553e+00 1.741661e+00 6.881891e+00 2.388955e-04 9.222613e-05 -5.857657e-05
N -3.225796e+00 1.755073e+00 -3.305291e+00 -4.989355e-05 -9.421222e-05 -5.301523e-05
N 1.924077e-02 -3.716781e+00 1.832241e+00 1.524480e-04 -9.991992e-05 1.195477e-04
N -6.683711e-02 -3.669242e+00 6.883855e+00 -4.014619e-05 -1.873059e-04 1.847025e-05
N -2.604853e-02 -3.640015e+00 -3.357704e+00 -3.775001e-05 6.470164e-05 -1.206717e-04
N -1.601416e+00 -9.533046e-01 1.744699e+00 -7.805109e-05 -8.339095e-06 -1.326568e-04
N -1.564650e+00 -9.278289e-01 6.893133e+00 6.321606e-05 -1.822178e-05 2.970586e-05
N -1.564065e+00 -9.708590e-01 -3.286983e+00 -1.114084e-04 -7.081472e-05 8.661573e-07
