108
Energy=-2.771215e+06 Lattice="9.686989e+00 0.000000e+00 0.000000e+00 -4.843687e+00 8.387963e+00 0.000000e+00 -6.290911e-04 -5.344997e-04 1.573298e+01" Stress="-1.341060e-06 -2.337984e-06 1.163908e-05 -1.797211e-06 -5.491877e-08 -1.846471e-07 4.276439e-06 2.918848e-07 -5.205812e-06" Properties=species:S:1:pos:R:3:forces:R:3 Config_type=AlGaN_super3_51_0_16.xyz
Al 1.590177e+00 8.934315e-01 2.478189e+00 -8.312671e-08 3.967387e-06 4.993059e-07
Ga 1.586555e+00 8.991896e-01 7.719787e+00 -1.616807e-06 -3.200978e-06 -2.126631e-05
Ga 1.590154e+00 8.926168e-01 -2.772079e+00 -6.021034e-06 5.165765e-06 4.746591e-07
Ga -1.877086e-02 3.679663e+00 2.476775e+00 -1.008659e-05 -3.494889e-06 -1.045034e-05
Al -1.748062e-02 3.689692e+00 7.728026e+00 -3.863225e-07 1.769983e-06 -7.970245e-06
Ga -1.615997e-02 3.690161e+00 -2.779610e+00 4.326894e-06 1.587573e-06 -3.966903e-06
Ga 3.202389e+00 -1.898761e+00 2.479041e+00 -1.610651e-05 6.187647e-06 -1.152173e-05
Ga 3.208478e+00 -1.910735e+00 7.717045e+00 -3.358787e-06 2.920090e-07 -9.057030e-06
Ga 3.204605e+00 -1.904669e+00 -2.769972e+00 4.295345e-07 6.306471e-06 -1.329072e-06
Ga -4.876407e+00 8.915516e-01 2.474197e+00 7.171542e-07 7.723925e-06 -1.020397e-05
Ga -4.867901e+00 8.927186e-01 7.718980e+00 -9.585486e-06 5.852925e-06 -4.784117e-06
Ga -4.868053e+00 8.928732e-01 -2.765727e+00 -1.414853e-06 2.108243e-06 -1.676569e-06
Ga -6.487105e+00 3.680544e+00 2.478920e+00 2.314975e-06 3.531222e-06 -8.068678e-06
Ga -6.496368e+00 3.689185e+00 7.728760e+00 -2.772163e-07 4.506838e-06 -8.011750e-06
Ga -6.490636e+00 3.690748e+00 -2.782252e+00 -2.465459e-06 5.661597e-06 -1.009215e-05
Ga -3.251986e+00 -1.905646e+00 2.480489e+00 -9.967105e-06 -6.652983e-06 -4.361576e-06
Ga -3.257074e+00 -1.917855e+00 7.732843e+00 -7.396826e-06 3.120917e-06 -1.314267e-05
Ga -3.252687e+00 -1.914243e+00 -2.787341e+00 2.610365e-06 1.653208e-06 1.573518e-06
Ga -1.625936e+00 8.924039e-01 2.479578e+00 -9.197844e-06 5.605497e-06 -3.619553e-06
Ga -1.631904e+00 9.004273e-01 7.717403e+00 -1.031116e-05 -6.852929e-07 -1.625000e-05
Ga -1.635040e+00 8.937048e-01 -2.770159e+00 -6.076834e-06 8.695090e-06 -4.427570e-06
Ga -3.250765e+00 3.689436e+00 2.481203e+00 -7.968800e-07 4.960130e-06 -2.729077e-06
Ga -3.243279e+00 3.687547e+00 7.722078e+00 -6.714229e-07 2.074531e-06 5.786644e-07
Ga -3.250811e+00 3.688380e+00 -2.773649e+00 -2.670422e-06 3.803046e-06 -1.288638e-05
Ga -1.954015e-02 -1.897004e+00 2.475614e+00 -9.950555e-06 -2.149106e-06 4.729479e-07
Ga -2.195001e-02 -1.902931e+00 7.719411e+00 -7.639716e-06 -1.135005e-06 -7.428358e-06
Ga -2.152919e-02 -1.903263e+00 -2.765928e+00 -3.852594e-06 5.684794e-06 1.016794e-06
Ga -1.573500e-02 1.827362e+00 5.102055e+00 6.035511e-06 -2.273027e-06 -6.567834e-06
Ga -1.810486e-02 1.839899e+00 -5.405061e+00 5.361092e-06 -2.878840e-06 -1.041784e-05
Ga -1.775266e-02 1.822334e+00 -1.369415e-01 5.678948e-06 -8.464007e-06 -7.801315e-06
Ga 3.212379e+00 -3.772009e+00 5.113896e+00 1.055209e-05 -3.744315e-06 -9.971918e-06
Ga 3.223076e+00 -3.770949e+00 -5.404918e+00 9.159152e-06 -2.940566e-06 -5.202786e-06
Ga 3.206913e+00 -3.768779e+00 -1.484410e-01 9.068418e-06 -8.235812e-07 -7.864197e-06
Ga 1.590775e+00 -9.640456e-01 5.085316e+00 1.729142e-05 -3.352214e-06 -3.164596e-06
Ga 1.591485e+00 -9.721002e-01 -5.391374e+00 4.401494e-06 -5.577804e-06 -3.110955e-06
Ga 1.591988e+00 -9.661514e-01 -1.325933e-01 7.002584e-06 2.619021e-06 -8.602751e-06
Ga 3.198716e+00 1.821257e+00 5.090256e+00 8.124026e-06 -1.922216e-06 -8.241859e-06
Ga 3.202013e+00 1.832062e+00 -5.392828e+00 7.406855e-06 1.475246e-07 -3.799867e-06
Ga 3.199338e+00 1.823026e+00 -1.371769e-01 9.325460e-06 8.856156e-06 -1.239267e-05
Ga 6.429899e+00 -3.770521e+00 5.111214e+00 3.166099e-06 -9.102489e-06 -5.876326e-06
Al 6.427594e+00 -3.773066e+00 -5.406619e+00 6.948911e-06 3.348010e-06 -1.010720e-05
Ga 6.435056e+00 -3.767575e+00 -1.462716e-01 2.292006e-06 1.192106e-06 1.405260e-06
Ga 4.821993e+00 -9.725810e-01 5.102357e+00 6.702335e-06 4.017355e-06 -1.144745e-05
Ga 4.824180e+00 -9.785305e-01 -5.393249e+00 4.209235e-06 -8.130245e-06 -3.380689e-06
Ga 4.821955e+00 -9.746304e-01 -1.485497e-01 4.987050e-06 7.754809e-06 8.519855e-06
Ga -3.252599e+00 1.823771e+00 5.099094e+00 1.316568e-06 5.480874e-07 -1.377229e-05
Ga -3.251969e+00 1.823391e+00 -5.390553e+00 9.619453e-06 -1.098248e-05 -2.948458e-06
Ga -3.250996e+00 1.825034e+00 -1.441333e-01 1.142023e-05 7.055960e-06 -1.156392e-05
Ga -2.458420e-02 -3.768483e+00 5.102496e+00 7.454939e-06 -1.137842e-05 -2.910113e-06
Ga -3.312877e-02 -3.767631e+00 -5.392815e+00 9.129738e-06 9.654969e-06 -9.640268e-06
Ga -2.433456e-02 -3.769692e+00 -1.483772e-01 9.998790e-06 4.039867e-06 -2.916666e-06
Ga -1.638968e+00 -9.732876e-01 5.102610e+00 1.105403e-05 -6.453984e-06 -1.224688e-05
Ga -1.641237e+00 -9.792331e-01 -5.393419e+00 1.035136e-05 -2.772285e-06 -1.317545e-06
Ga -1.639826e+00 -9.729887e-01 -1.483405e-01 6.092665e-06 -1.939061e-06 9.990254e-07
N 1.588370e+00 8.949100e-01 4.404428e+00 -1.193529e-05 -3.877233e-06 8.242177e-06
N 1.591988e+00 8.918972e-01 -6.034144e+00 -7.326366e-06 -7.985054e-06 8.163024e-06
N 1.590739e+00 8.918538e-01 -7.911321e-01 2.535635e-06 4.108651e-06 6.476665e-06
N -2.297939e-02 3.688134e+00 4.455748e+00 -6.589884e-06 -4.266416e-07 8.084554e-06
N 2.084988e-02 3.712691e+00 -6.074527e+00 -1.022424e-05 -4.890512e-06 8.050135e-06
N -2.039558e-02 3.686689e+00 -7.924760e-01 5.885416e-07 2.248491e-06 1.018833e-05
N 3.206947e+00 -1.907705e+00 4.464087e+00 -4.645356e-06 8.300448e-07 8.680471e-06
N 3.205362e+00 -1.902900e+00 -6.035429e+00 -6.766332e-06 3.601481e-06 3.516544e-06
N 3.202825e+00 -1.902994e+00 -7.844858e-01 -5.044146e-06 4.659519e-07 1.559856e-06
N -4.867627e+00 8.915596e-01 4.457084e+00 -6.543063e-06 -9.276185e-07 9.464236e-06
N -4.867680e+00 8.925096e-01 -6.032281e+00 -3.242459e-06 4.937233e-06 2.903124e-06
N -4.868965e+00 8.939863e-01 -7.807494e-01 -8.120257e-06 -7.548687e-06 5.061746e-06
N -6.484189e+00 3.689892e+00 4.462392e+00 -8.289161e-06 4.583802e-06 8.038355e-06
N -6.525204e+00 3.712725e+00 -6.015071e+00 -3.633392e-06 -1.306877e-06 5.318402e-06
N -6.484722e+00 3.687021e+00 -7.935671e-01 -1.296398e-05 -4.927369e-06 2.666517e-06
N -3.251942e+00 -1.907038e+00 4.463170e+00 -5.321709e-06 2.178077e-06 1.328415e-05
N -3.252225e+00 -1.954209e+00 -6.011641e+00 -1.984343e-05 2.000864e-06 2.204336e-05
N -3.252031e+00 -1.908016e+00 -8.005681e-01 -7.055478e-06 -2.956226e-06 -8.649152e-06
N -1.633737e+00 8.929640e-01 4.464624e+00 -4.538980e-06 -5.639906e-06 1.632367e-05
N -1.635957e+00 8.923229e-01 -6.033127e+00 -5.645403e-06 4.784084e-06 4.794820e-06
N -1.634523e+00 8.942163e-01 -7.845044e-01 -1.087550e-05 -1.292019e-06 -9.634997e-07
N -3.249626e+00 3.690827e+00 4.465461e+00 -8.355756e-06 7.408482e-07 6.908788e-06
N -3.251904e+00 3.689499e+00 -6.029302e+00 -7.425191e-06 2.721982e-06 5.380479e-06
N -3.251726e+00 3.688226e+00 -7.900918e-01 -9.748682e-06 -1.595375e-06 6.565464e-06
N -2.449650e-02 -1.904568e+00 4.458364e+00 -8.760528e-06 4.154463e-06 6.125836e-06
N -2.214300e-02 -1.903289e+00 -6.033939e+00 -6.955576e-06 2.588087e-09 3.589816e-06
N -2.009716e-02 -1.902428e+00 -7.811160e-01 -1.091426e-05 2.587514e-06 7.917735e-07
N 2.106604e-02 1.799060e+00 1.853264e+00 -6.138311e-06 -1.328052e-05 -1.058443e-05
N -2.023542e-02 1.875867e+00 7.096360e+00 5.221402e-06 -3.194877e-06 1.543209e-05
N -2.286825e-02 1.826993e+00 -3.420503e+00 5.393215e-06 -3.843152e-06 1.984388e-06
N 3.207560e+00 -3.768412e+00 1.835008e+00 1.571437e-05 4.785102e-06 1.148757e-05
N 3.252066e+00 -3.795370e+00 7.104949e+00 3.022579e-06 3.581415e-06 6.904578e-06
N 3.209878e+00 -3.769293e+00 -3.418869e+00 3.745360e-06 -1.404015e-06 7.221348e-06
N 1.592230e+00 -9.214183e-01 1.858579e+00 1.075605e-05 -5.961239e-06 2.863262e-06
N 1.591773e+00 -9.682621e-01 7.070339e+00 5.223094e-06 6.711105e-06 8.794297e-06
N 1.591093e+00 -9.723087e-01 -3.410725e+00 7.457578e-06 -3.872694e-06 2.990046e-06
N 3.160870e+00 1.799573e+00 1.854472e+00 -6.892355e-06 -4.377162e-06 1.472339e-05
N 3.202969e+00 1.824759e+00 7.075232e+00 -1.635084e-06 -1.085709e-06 3.253879e-06
N 3.205728e+00 1.823430e+00 -3.411602e+00 6.160595e-06 -2.231845e-06 6.574943e-06
N 6.434791e+00 -3.768079e+00 1.833884e+00 7.865973e-06 3.501560e-06 5.985324e-06
N 6.390665e+00 -3.793143e+00 7.097315e+00 1.035995e-05 4.064380e-06 8.553135e-06
N 6.431115e+00 -3.771710e+00 -3.478460e+00 -4.913359e-06 -3.002704e-06 2.920901e-06
N 4.821209e+00 -9.741773e-01 1.834351e+00 1.006106e-05 -8.292241e-06 1.177471e-05
N 4.823139e+00 -9.734539e-01 7.084234e+00 8.743199e-06 9.277798e-07 8.930782e-06
N 4.819077e+00 -9.712548e-01 -3.410375e+00 -3.424546e-06 -2.624641e-06 -7.944776e-07
N -3.250700e+00 1.823249e+00 1.840029e+00 -4.127592e-07 -5.770948e-06 1.111648e-05
N -3.252502e+00 1.823848e+00 7.078985e+00 2.231743e-06 1.542386e-06 8.377701e-06
N -3.252386e+00 1.822588e+00 -3.408619e+00 -8.812872e-07 6.033450e-07 8.202654e-06
N -2.454846e-02 -3.769278e+00 1.836701e+00 3.811148e-06 -8.841231e-08 3.796274e-06
N -2.586143e-02 -3.771328e+00 7.086585e+00 6.126394e-07 -1.173848e-06 3.992711e-06
N -2.440278e-02 -3.767597e+00 -3.409890e+00 2.569513e-06 -2.483674e-06 9.962084e-06
N -1.639263e+00 -9.721645e-01 1.834689e+00 8.278250e-06 -2.018610e-06 1.182923e-06
N -1.641912e+00 -9.734381e-01 7.086424e+00 6.100498e-06 8.081474e-06 4.043328e-06
N -1.636325e+00 -9.719763e-01 -3.410411e+00 3.993896e-06 -5.103692e-06 6.708931e-07
