108
Energy=-1.993031e+06 Lattice="9.585361e+00 0.000000e+00 0.000000e+00 -4.793887e+00 8.300898e+00 0.000000e+00 -2.949375e-03 -1.488132e-03 1.551761e+01" Stress="1.285108e-04 -7.076709e-05 -6.694748e-05 -6.987330e-05 7.113771e-05 -1.276182e-06 -5.094857e-05 8.074993e-08 1.923855e-04" Properties=species:S:1:pos:R:3:forces:R:3 Config_type=AlGaN_super3_34_2_10.xyz
Al 1.569552e+00 8.962519e-01 2.430010e+00 1.158605e-04 -6.542707e-05 7.679516e-05
Al 1.561291e+00 8.972411e-01 7.607752e+00 1.305932e-04 1.685120e-05 1.896048e-04
Al 1.591516e+00 9.004247e-01 -2.726478e+00 6.627405e-05 -6.401010e-05 1.273374e-04
Al -2.102450e-02 3.641359e+00 2.452203e+00 1.056782e-05 1.020544e-04 1.037192e-04
Al -2.201202e-02 3.637542e+00 7.579422e+00 -1.783886e-05 3.364769e-05 1.586462e-04
Ga -2.736744e-03 3.643579e+00 -2.721155e+00 9.389202e-06 1.131593e-04 3.431461e-04
Al 3.187082e+00 -1.886505e+00 2.464766e+00 8.571147e-05 2.604415e-05 -7.743197e-05
Ga 3.191506e+00 -1.888196e+00 7.583185e+00 1.271933e-04 -7.300068e-06 2.652839e-04
Ga 3.182778e+00 -1.870668e+00 -2.730981e+00 4.222317e-05 5.962405e-05 6.705541e-05
Ga -4.838164e+00 8.655842e-01 2.442748e+00 1.834355e-04 -4.041593e-05 2.162523e-04
Ga -4.821106e+00 8.663187e-01 7.610727e+00 2.139293e-04 1.184072e-05 3.346764e-04
Al -4.836567e+00 8.865631e-01 -2.738988e+00 1.277905e-04 6.057596e-05 2.379116e-04
Ga -6.432659e+00 3.641916e+00 2.444275e+00 -7.853327e-06 2.233770e-05 2.291956e-04
Ga -6.424828e+00 3.646848e+00 7.622224e+00 1.228156e-04 5.940310e-05 4.272750e-04
Al -6.416630e+00 3.633662e+00 -2.753767e+00 4.234571e-05 3.558875e-05 2.563597e-04
Al -3.237665e+00 -1.891696e+00 2.455097e+00 -6.056918e-05 -6.754181e-06 2.376484e-05
Al -3.227055e+00 -1.882929e+00 7.594336e+00 9.262532e-06 4.060339e-05 1.530755e-04
Al -3.217158e+00 -1.886154e+00 -2.735404e+00 8.559295e-05 9.999861e-05 1.527852e-04
Ga -1.600477e+00 8.894285e-01 2.446116e+00 2.258058e-04 -6.973190e-05 3.771596e-04
Al -1.603448e+00 8.857066e-01 7.594180e+00 -3.776102e-05 -3.333345e-05 1.324375e-04
Ga -1.617041e+00 8.790162e-01 -2.721759e+00 1.126212e-04 -8.050126e-05 2.972377e-04
Ga -3.211819e+00 3.661295e+00 2.470031e+00 1.808342e-04 -3.983665e-05 1.740721e-04
Ga -3.209711e+00 3.652134e+00 7.600107e+00 1.022965e-04 -8.989645e-05 1.741830e-04
Ga -3.231638e+00 3.646033e+00 -2.742901e+00 9.504236e-05 -9.057704e-05 2.845183e-04
Ga -2.255920e-02 -1.879920e+00 2.458114e+00 1.708303e-04 -8.313150e-05 1.675137e-04
Ga -3.069256e-02 -1.880601e+00 7.611179e+00 8.397863e-05 -1.304508e-04 1.433436e-04
Ga -3.028618e-02 -1.885273e+00 -2.744608e+00 1.116103e-04 -1.286650e-04 1.622290e-04
Al -1.858395e-02 1.814174e+00 5.032686e+00 -1.446021e-04 4.686738e-05 1.286905e-04
Ga -7.061157e-03 1.805065e+00 -5.341770e+00 -1.759053e-04 1.787746e-04 4.054031e-04
Al -7.768395e-04 1.805070e+00 -1.364622e-01 -6.135191e-05 9.715052e-05 2.221780e-04
Al 3.183768e+00 -3.731450e+00 5.009886e+00 -4.268929e-05 7.003001e-05 9.071263e-05
Ga 3.176107e+00 -3.733296e+00 -5.337499e+00 -1.015510e-04 1.614224e-04 1.157164e-04
Ga 3.182722e+00 -3.735581e+00 -1.139169e-01 -1.250917e-04 1.357753e-04 6.325300e-04
Ga 1.584732e+00 -9.554822e-01 5.013697e+00 -1.839430e-04 8.493819e-05 2.194053e-04
Ga 1.579900e+00 -9.461218e-01 -5.326535e+00 -1.889441e-04 1.272902e-04 1.388455e-04
Ga 1.581691e+00 -9.351142e-01 -1.302288e-01 -2.067268e-04 1.175394e-04 7.616071e-04
Ga 3.156939e+00 1.800667e+00 5.026814e+00 -1.938865e-05 -1.697182e-05 4.889713e-04
Al 3.167623e+00 1.808016e+00 -5.308379e+00 4.975305e-05 -1.051254e-05 1.581546e-04
Al 3.157484e+00 1.805208e+00 -1.702174e-01 1.909982e-05 2.212928e-05 1.315019e-04
Ga 6.349451e+00 -3.727485e+00 5.023620e+00 -5.846137e-05 9.951076e-05 3.187827e-04
Ga 6.376632e+00 -3.729793e+00 -5.328400e+00 -3.846681e-05 8.569098e-05 3.002087e-04
Ga 6.372024e+00 -3.739806e+00 -1.412618e-01 5.009426e-06 1.513520e-05 3.209693e-04
Al 4.769516e+00 -9.782006e-01 5.014308e+00 -1.042917e-05 5.252652e-05 4.433412e-05
Ga 4.778671e+00 -9.560268e-01 -5.307227e+00 -1.288445e-04 4.701938e-05 1.992440e-04
Ga 4.772878e+00 -9.566711e-01 -1.454077e-01 -1.569494e-04 5.196579e-05 3.848152e-04
Ga -3.215136e+00 1.809941e+00 5.038147e+00 3.575186e-06 1.246244e-04 1.673686e-04
Ga -3.227649e+00 1.806715e+00 -5.326369e+00 -2.969315e-05 2.303409e-05 1.916325e-04
Ga -3.227453e+00 1.801931e+00 -1.500460e-01 -1.170354e-04 6.306461e-05 -5.293898e-04
Al -1.823374e-02 -3.730561e+00 5.032261e+00 5.396944e-05 1.136505e-04 2.053732e-04
Al -3.097254e-02 -3.739571e+00 -5.309827e+00 2.248441e-05 1.951826e-05 1.064767e-04
Ga -3.396406e-02 -3.741612e+00 -1.560315e-01 -8.033487e-05 3.514711e-05 -4.699721e-04
Ga -1.632190e+00 -9.630688e-01 5.038484e+00 -1.956996e-04 1.733587e-05 1.764271e-04
Ga -1.626205e+00 -9.649939e-01 -5.335551e+00 -1.758833e-04 4.949459e-05 2.088181e-04
Ga -1.626309e+00 -9.615904e-01 -1.367008e-01 -1.381201e-04 4.885702e-05 -2.044462e-04
N 1.526185e+00 9.148203e-01 4.350724e+00 2.808219e-04 -6.214571e-06 -1.002606e-04
N 1.620446e+00 9.132344e-01 -5.991876e+00 7.114803e-05 -7.377190e-05 -1.551872e-04
N 1.573262e+00 9.331846e-01 -7.961326e-01 1.551286e-04 -4.207616e-05 -1.002519e-04
N -6.354324e-02 3.615248e+00 4.382406e+00 1.295495e-04 -4.070693e-05 -1.069210e-04
N -1.921469e-02 3.649313e+00 -6.018241e+00 1.575970e-04 -1.707544e-04 -8.628951e-05
N -2.295205e-02 3.601795e+00 -7.451076e-01 6.310988e-05 -8.443251e-05 -1.905082e-04
N 3.214356e+00 -1.908861e+00 4.391439e+00 3.624723e-05 2.367390e-05 -1.580269e-06
N 3.180487e+00 -1.880364e+00 -5.958258e+00 1.434641e-04 -5.979886e-05 -1.167889e-04
N 3.169986e+00 -1.887457e+00 -7.620020e-01 1.528446e-04 -9.014563e-05 5.320693e-05
N -4.822401e+00 8.361625e-01 4.422251e+00 5.909152e-05 -1.409555e-05 -3.264630e-04
N -4.863853e+00 9.037202e-01 -5.927854e+00 1.487584e-04 1.983558e-05 -2.858035e-04
N -4.865137e+00 9.057749e-01 -8.097616e-01 1.203809e-04 -2.199722e-05 -2.065716e-04
N -6.377386e+00 3.671391e+00 4.421671e+00 -1.402461e-04 -1.382775e-04 -3.943155e-04
N -6.371662e+00 3.622103e+00 -5.906793e+00 -9.668861e-05 4.093080e-05 -3.993621e-04
N -6.417453e+00 3.600183e+00 -8.224801e-01 -6.027939e-05 2.793752e-05 -1.417450e-04
N -3.258339e+00 -1.863288e+00 4.367369e+00 1.275399e-04 -7.890057e-05 -8.821195e-06
N -3.224445e+00 -1.883802e+00 -6.010679e+00 8.966712e-05 -8.740619e-05 -7.169357e-05
N -3.217880e+00 -1.888702e+00 -8.231731e-01 3.323226e-05 -9.208400e-05 2.434379e-07
N -1.574918e+00 9.088006e-01 4.424561e+00 1.150072e-04 -1.116055e-04 -2.397429e-04
N -1.616514e+00 8.880644e-01 -6.004437e+00 2.691984e-04 -1.374543e-04 -1.792255e-04
N -1.573552e+00 9.093716e-01 -7.397440e-01 4.275476e-05 -1.407022e-04 -2.937901e-04
N -3.220348e+00 3.698545e+00 4.449892e+00 5.137811e-05 -2.565240e-04 -2.516203e-04
N -3.261500e+00 3.677661e+00 -5.936237e+00 2.602307e-05 -1.772201e-04 -1.810624e-04
N -3.213302e+00 3.653946e+00 -7.732349e-01 -6.284914e-05 -1.593890e-04 -2.171429e-04
N -2.669190e-02 -1.928511e+00 4.432863e+00 1.354126e-04 -1.695315e-05 -2.054716e-04
N -1.942371e-02 -1.935113e+00 -5.922953e+00 9.020947e-05 -5.421723e-05 -2.321699e-04
N -1.819061e-02 -1.880246e+00 -7.677172e-01 2.457458e-05 -1.738061e-04 -1.604887e-04
N 2.278148e-02 1.830472e+00 1.790968e+00 -1.917503e-04 4.249042e-05 -2.571538e-04
N -1.657059e-02 1.803396e+00 6.972018e+00 -1.886861e-05 3.914610e-05 -1.529054e-04
N 2.221964e-02 1.779906e+00 -3.359264e+00 -6.516325e-05 1.119001e-04 -4.209380e-04
N 3.215672e+00 -3.706820e+00 1.875253e+00 -7.165519e-05 -1.024741e-05 -6.341075e-04
N 3.218196e+00 -3.755671e+00 6.932279e+00 -1.203275e-04 1.514780e-04 -9.867267e-05
N 3.182785e+00 -3.731683e+00 -3.365840e+00 -3.934479e-05 2.728615e-05 -2.199173e-04
N 1.621230e+00 -9.357571e-01 1.871031e+00 -1.904615e-04 1.338084e-05 -7.818523e-04
N 1.577429e+00 -9.099248e-01 6.997603e+00 -1.320945e-04 1.472009e-05 -2.855457e-04
N 1.578212e+00 -9.045149e-01 -3.342958e+00 -1.474853e-04 6.283845e-05 -1.564641e-04
N 3.128129e+00 1.782373e+00 1.762732e+00 -5.265649e-05 5.112405e-05 -5.951535e-05
N 3.127403e+00 1.780725e+00 6.997823e+00 -1.193503e-04 2.518647e-05 -4.054022e-04
N 3.166876e+00 1.801802e+00 -3.368181e+00 -1.513018e-04 -6.895758e-05 -2.601520e-04
N 6.322909e+00 -3.706144e+00 1.855751e+00 1.253031e-04 -3.643602e-05 -3.307839e-04
N 6.327361e+00 -3.706086e+00 7.012621e+00 5.284301e-05 -1.041322e-04 -4.256639e-04
N 6.408551e+00 -3.703479e+00 -3.334512e+00 -1.175332e-04 -1.592563e-04 -3.819958e-04
N 4.768954e+00 -1.012006e+00 1.842427e+00 -9.893703e-06 5.044437e-06 -4.444567e-04
N 4.814398e+00 -9.860174e-01 6.929970e+00 -2.184172e-04 -4.864843e-05 -5.531608e-05
N 4.817527e+00 -9.364514e-01 -3.323261e+00 -2.073848e-04 -1.323334e-04 -2.179424e-04
N -3.225138e+00 1.804917e+00 1.827795e+00 -4.734140e-05 6.279294e-05 5.288133e-04
N -3.179719e+00 1.778241e+00 7.012540e+00 -2.079789e-04 1.010131e-04 -2.033335e-04
N -3.257770e+00 1.774464e+00 -3.341711e+00 -1.542016e-05 1.081908e-04 -2.680351e-04
N -2.818846e-02 -3.732691e+00 1.812850e+00 -2.122584e-05 5.376914e-05 4.636180e-04
N -2.781326e-02 -3.731870e+00 6.938427e+00 -2.091461e-04 -3.583528e-06 -1.280645e-04
N -6.603967e-02 -3.753583e+00 -3.392318e+00 1.379741e-05 1.119887e-04 -9.179249e-05
N -1.668939e+00 -9.888444e-01 1.844876e+00 -4.922658e-05 4.586568e-05 1.612472e-04
N -1.664083e+00 -9.398528e-01 7.021741e+00 5.903607e-06 -2.035022e-05 -2.123335e-04
N -1.664917e+00 -9.812872e-01 -3.355299e+00 -6.265685e-05 5.917964e-05 -1.740128e-04
