108
Energy=-8.486435e+05 Lattice="9.445231e+00 0.000000e+00 0.000000e+00 -4.724039e+00 8.177069e+00 0.000000e+00 -8.065380e-03 -4.965673e-03 1.518907e+01" Stress="3.688414e-04 -4.513156e-05 -3.827086e-04 -4.771381e-05 -2.132592e-04 -2.361326e-04 -3.979830e-04 -2.395106e-04 7.460835e-04" Properties=species:S:1:pos:R:3:forces:R:3 Config_type=AlGaN_super3_9_1_89.xyz
Al 1.551288e+00 8.692281e-01 2.422074e+00 -9.743498e-05 -6.340966e-05 -5.169776e-07
Al 1.552611e+00 8.750589e-01 7.443117e+00 -3.528899e-05 1.954085e-05 2.845136e-06
Al 1.552641e+00 8.723470e-01 -2.718936e+00 -2.025279e-06 -8.153716e-06 -1.181165e-04
Al -9.019702e-03 3.598045e+00 2.418678e+00 -6.843425e-05 8.630497e-05 -1.005545e-04
Al -2.780314e-02 3.591933e+00 7.441948e+00 -2.392492e-05 -1.699272e-05 -3.428651e-05
Al -2.009908e-02 3.589686e+00 -2.714618e+00 1.668016e-05 -2.793501e-05 9.093439e-05
Al 3.134347e+00 -1.846184e+00 2.413909e+00 6.206726e-05 3.483477e-05 -2.838267e-05
Al 3.130490e+00 -1.859013e+00 7.444317e+00 2.593353e-05 -3.098012e-05 -1.828489e-05
Al 3.126543e+00 -1.850389e+00 -2.709965e+00 1.120533e-04 8.968461e-05 -1.454060e-04
Al -4.744160e+00 8.598349e-01 2.402875e+00 1.911673e-04 9.789344e-06 -6.709321e-05
Al -4.755364e+00 8.651221e-01 7.432100e+00 5.292629e-05 -7.145198e-06 3.210810e-08
Al -4.751134e+00 8.687898e-01 -2.688809e+00 -2.881790e-05 3.024564e-05 4.964117e-05
Al -6.335580e+00 3.598236e+00 2.390461e+00 -6.217346e-05 -1.525099e-04 -2.630967e-04
Al -6.335065e+00 3.580229e+00 7.458421e+00 2.161768e-05 -2.318187e-06 -1.426655e-05
Al -6.316892e+00 3.593117e+00 -2.699906e+00 4.039009e-06 -2.829332e-05 4.995186e-05
Al -3.173057e+00 -1.859289e+00 2.379975e+00 -1.470767e-05 -3.517423e-05 -7.825168e-05
Al -3.181916e+00 -1.857541e+00 7.443238e+00 9.589960e-05 8.533300e-05 -5.833664e-05
Ga -3.173154e+00 -1.855056e+00 -2.677836e+00 -7.994389e-07 1.132716e-06 3.153554e-05
Al -1.601181e+00 8.607417e-01 2.399623e+00 6.877326e-05 -1.935947e-05 -1.000888e-05
Al -1.600117e+00 8.698241e-01 7.434830e+00 6.102041e-06 5.721471e-06 -1.773987e-06
Al -1.587213e+00 8.727162e-01 -2.684664e+00 -2.374116e-05 2.967226e-05 1.950113e-04
Ga -3.173820e+00 3.586713e+00 2.388052e+00 -3.332396e-06 -5.027065e-05 -6.509052e-05
Al -3.163957e+00 3.586899e+00 7.450165e+00 -2.019465e-05 1.159136e-06 -6.054798e-05
Al -3.174261e+00 3.600415e+00 -2.685291e+00 -6.743242e-06 -3.966157e-06 -1.867550e-05
Al -3.206007e-02 -1.848006e+00 2.392380e+00 1.707367e-04 1.427118e-04 -1.370426e-04
Ga -2.799018e-02 -1.848788e+00 7.463382e+00 -5.015476e-06 -1.822445e-05 -2.284388e-05
Al -1.690659e-02 -1.856533e+00 -2.702875e+00 1.181518e-04 -6.656778e-05 1.116190e-04
Al -2.659032e-02 1.776483e+00 4.920432e+00 -2.584733e-05 -2.773310e-05 -4.636117e-05
Al -1.406484e-02 1.778600e+00 -5.226841e+00 -2.256301e-06 2.325189e-05 1.909037e-05
Ga -2.845487e-02 1.781080e+00 -1.383767e-01 -4.809260e-05 8.943598e-05 -5.866989e-05
Al 3.138326e+00 -3.670492e+00 4.932562e+00 4.023556e-05 3.293282e-05 -2.567165e-05
Al 3.133569e+00 -3.664886e+00 -5.219261e+00 -1.547486e-05 6.515709e-06 -4.187928e-05
Ga 3.137297e+00 -3.667931e+00 -1.567874e-01 1.829069e-06 -2.239025e-05 -1.494116e-05
Al 1.556820e+00 -9.406879e-01 4.916705e+00 5.858809e-05 6.716834e-05 1.287627e-05
Al 1.561386e+00 -9.432659e-01 -5.210998e+00 -8.242312e-05 -1.991529e-05 -5.308904e-05
Ga 1.550391e+00 -9.545942e-01 -1.479078e-01 2.397244e-06 -7.039655e-05 -1.063118e-05
Al 3.118777e+00 1.772232e+00 4.919249e+00 1.303833e-06 5.831341e-05 -7.469685e-05
Al 3.122085e+00 1.778859e+00 -5.219283e+00 -3.610354e-05 4.266054e-06 2.042800e-05
Ga 3.138920e+00 1.784642e+00 -1.455625e-01 -6.763129e-07 4.537188e-05 3.188053e-06
Al 6.265737e+00 -3.671640e+00 4.926132e+00 2.388563e-05 -2.114157e-07 -7.925773e-05
Al 6.277415e+00 -3.673933e+00 -5.234178e+00 -1.249868e-05 -2.253069e-07 -3.253826e-05
Al 6.282051e+00 -3.667209e+00 -1.399823e-01 -6.307233e-05 -4.743015e-06 -1.218507e-05
Al 4.701188e+00 -9.514079e-01 4.919890e+00 -3.234608e-05 5.791362e-06 -5.814643e-05
Al 4.696797e+00 -9.507219e-01 -5.236147e+00 4.647066e-05 3.566648e-05 -8.635877e-05
Al 4.709223e+00 -9.436335e-01 -1.313226e-01 9.413703e-05 -1.079002e-04 2.674731e-05
Al -3.169752e+00 1.762025e+00 4.937845e+00 3.861853e-06 -1.665283e-05 -1.956505e-05
Ga -3.167807e+00 1.776427e+00 -5.215012e+00 -3.600026e-05 -1.271934e-05 -2.058496e-05
Al -3.175515e+00 1.763278e+00 -1.646418e-01 1.455763e-04 -1.210274e-04 5.094962e-05
Ga -3.324512e-02 -3.675605e+00 4.929172e+00 -2.284863e-05 -2.627378e-05 1.470711e-05
Al -2.316418e-02 -3.673317e+00 -5.210360e+00 -3.166055e-05 6.482076e-06 2.042516e-05
Al -3.668827e-02 -3.668160e+00 -1.592614e-01 7.222790e-05 5.580955e-05 -1.830605e-04
Al -1.610959e+00 -9.420160e-01 4.906883e+00 -6.169832e-05 1.048880e-04 -1.033097e-04
Al -1.594830e+00 -9.466809e-01 -5.212521e+00 -3.229764e-05 6.787455e-05 8.682159e-05
Al -1.601252e+00 -9.504689e-01 -1.382941e-01 -9.665378e-05 -1.642905e-04 -8.940793e-05
N 1.548139e+00 8.701686e-01 4.331544e+00 1.712996e-05 2.129985e-05 5.152944e-05
N 1.555481e+00 8.706707e-01 -5.821567e+00 3.420348e-05 -1.148640e-05 -4.958013e-07
N 1.552258e+00 8.723013e-01 -8.151125e-01 3.639235e-05 -1.269264e-05 1.451395e-04
N -2.246713e-02 3.596161e+00 4.334006e+00 3.712629e-05 1.215444e-05 5.073334e-05
N -2.328664e-02 3.596034e+00 -5.826215e+00 2.547769e-05 -8.520265e-06 4.021379e-05
N 2.435927e-02 3.617547e+00 -8.038488e-01 -2.456190e-05 -7.983810e-05 -8.844016e-05
N 3.127442e+00 -1.857195e+00 4.328157e+00 2.237437e-05 -1.331592e-05 7.209038e-05
N 3.126483e+00 -1.856023e+00 -5.825865e+00 1.265206e-05 -4.533362e-06 4.189768e-05
N 3.172644e+00 -1.826366e+00 -8.009907e-01 -5.285317e-05 5.242337e-05 1.784492e-04
N -4.744220e+00 8.677748e-01 4.326232e+00 2.733282e-05 6.614322e-06 4.474832e-05
N -4.785153e+00 8.497786e-01 -5.846727e+00 -1.653780e-05 2.759933e-05 -1.071403e-04
N -4.709621e+00 8.389346e-01 -7.754175e-01 -2.063943e-05 5.803379e-05 -5.592681e-06
N -6.368752e+00 3.573118e+00 4.298863e+00 -5.651304e-05 -1.007528e-04 3.182381e-04
N -6.317950e+00 3.592877e+00 -5.816403e+00 3.355612e-05 -2.640220e-05 1.698558e-05
N -6.324534e+00 3.642073e+00 -7.807251e-01 3.577146e-05 2.906158e-05 -3.226479e-05
N -3.175870e+00 -1.861038e+00 4.305789e+00 3.184087e-05 -2.288311e-05 6.327785e-05
N -3.166375e+00 -1.852915e+00 -5.824618e+00 4.162440e-05 -9.582125e-07 -2.378597e-05
N -3.172527e+00 -1.855370e+00 -6.925741e-01 1.580694e-04 4.954128e-05 6.173880e-05
N -1.603509e+00 8.704466e-01 4.318291e+00 1.260059e-05 1.360067e-05 2.115973e-05
N -1.552319e+00 8.463389e-01 -5.844671e+00 -3.745722e-05 -1.075328e-04 -1.200944e-04
N -1.629705e+00 8.427832e-01 -7.698379e-01 -4.305787e-05 8.349230e-05 -1.050734e-04
N -3.132293e+00 3.566749e+00 4.358329e+00 -4.688274e-05 -4.085288e-05 2.455893e-05
N -3.165676e+00 3.643181e+00 -5.829249e+00 1.615403e-05 1.429929e-05 -1.551336e-05
N -3.212387e+00 3.574872e+00 -7.629037e-01 -1.334998e-04 2.359567e-04 1.022814e-04
N -2.663011e-02 -1.809782e+00 4.305356e+00 -3.312293e-05 -1.183287e-04 -2.734494e-05
N -1.913238e-02 -1.851890e+00 -5.755255e+00 1.760718e-04 -4.055116e-05 4.073409e-05
N -6.434869e-02 -1.875085e+00 -7.799518e-01 4.134172e-05 -9.938554e-05 -2.058772e-05
N -2.284624e-02 1.778977e+00 1.847652e+00 -1.470932e-05 2.972713e-05 -1.817497e-05
N -2.498842e-02 1.775788e+00 6.840898e+00 4.316138e-08 4.775557e-05 4.156882e-05
N -2.570867e-02 1.777452e+00 -3.307766e+00 -2.942126e-05 1.565651e-05 2.808368e-06
N 3.172843e+00 -3.647225e+00 1.818693e+00 9.265779e-05 -1.645612e-04 7.693618e-05
N 3.126468e+00 -3.673528e+00 6.848541e+00 -7.049953e-06 3.321405e-05 2.607793e-05
N 3.125853e+00 -3.673230e+00 -3.295356e+00 2.650708e-05 1.631287e-05 1.278173e-05
N 1.554657e+00 -9.470666e-01 1.838343e+00 -2.747626e-04 -6.315963e-05 9.183979e-06
N 1.589762e+00 -9.261696e-01 6.829584e+00 -4.677945e-05 -3.002425e-05 -9.062958e-05
N 1.555233e+00 -9.474352e-01 -3.296279e+00 4.654861e-06 4.751619e-06 -1.635554e-05
N 3.125344e+00 1.773723e+00 1.838749e+00 3.147153e-05 2.553164e-04 2.574925e-05
N 3.120008e+00 1.778196e+00 6.837490e+00 8.711674e-06 4.212969e-05 1.822067e-05
N 3.131721e+00 1.780354e+00 -3.298783e+00 -3.473048e-05 2.128610e-05 8.479203e-06
N 6.269968e+00 -3.678333e+00 1.781597e+00 3.630379e-06 1.817037e-05 6.141717e-05
N 6.272475e+00 -3.674918e+00 6.848830e+00 1.478436e-05 3.107986e-05 1.124524e-05
N 6.278572e+00 -3.714800e+00 -3.325082e+00 -2.233527e-06 1.930823e-05 2.155021e-05
N 4.694758e+00 -9.461087e-01 1.792067e+00 5.163135e-05 3.494456e-05 3.330593e-05
N 4.697665e+00 -9.529661e-01 6.838613e+00 1.658863e-05 4.787600e-05 5.734557e-05
N 4.666426e+00 -9.217861e-01 -3.327423e+00 -2.102729e-04 -2.063214e-04 1.622996e-04
N -3.172767e+00 1.724114e+00 1.755596e+00 -2.474944e-04 -6.226241e-05 1.819177e-05
N -3.175105e+00 1.772681e+00 6.854082e+00 -9.135639e-06 4.194908e-05 2.574970e-05
N -3.169309e+00 1.778208e+00 -3.237931e+00 1.711063e-04 -8.405261e-05 -1.269358e-04
N -6.710078e-02 -3.648970e+00 1.763935e+00 4.545520e-05 2.620808e-05 1.873113e-04
N -3.055826e-02 -3.722000e+00 6.891896e+00 3.390948e-05 6.357454e-08 5.768068e-05
N -2.005072e-02 -3.676457e+00 -3.292743e+00 -1.316634e-05 1.936471e-05 3.414186e-05
N -1.596254e+00 -9.455676e-01 1.785289e+00 1.087718e-05 -1.580369e-05 5.636880e-05
N -1.643291e+00 -9.287841e-01 6.817445e+00 -1.598196e-04 -1.498543e-04 2.778608e-04
N -1.560528e+00 -9.217727e-01 -3.304780e+00 -2.011240e-04 1.407632e-04 -2.354947e-04
