108
Energy=-5.739908e+05 Lattice="9.412565e+00 0.000000e+00 0.000000e+00 -4.706574e+00 8.151788e+00 0.000000e+00 1.638804e-04 1.408629e-04 1.509591e+01" Stress="1.937788e-05 -1.194831e-05 -1.493098e-05 -1.633962e-05 7.612227e-06 -7.949542e-05 -1.508793e-05 -8.027228e-05 5.089400e-04" Properties=species:S:1:pos:R:3:forces:R:3 Config_type=AlGaN_super3_3_1_25.xyz
Al 1.546726e+00 8.670464e-01 2.371104e+00 -1.772444e-05 -9.305790e-05 -2.314011e-04
Al 1.546229e+00 8.742451e-01 7.378825e+00 -6.995013e-06 -2.301929e-06 -3.182705e-05
Al 1.549928e+00 8.824774e-01 -2.649792e+00 7.018177e-05 4.140332e-04 2.731022e-04
Al -2.175719e-02 3.584340e+00 2.366696e+00 -1.822799e-05 -3.884444e-05 -1.971948e-04
Al -2.789211e-02 3.580793e+00 7.383511e+00 -2.696122e-05 3.108098e-06 -1.519265e-04
Al -2.963966e-02 3.579699e+00 -2.651525e+00 8.133930e-06 9.344156e-06 3.806179e-05
Al 3.115860e+00 -1.850584e+00 2.371080e+00 -8.653510e-05 5.445607e-05 -1.868831e-04
Al 3.121762e+00 -1.854517e+00 7.378717e+00 2.292294e-05 -6.781363e-06 -9.879048e-06
Al 3.130902e+00 -1.855606e+00 -2.649721e+00 2.270353e-04 -3.393968e-05 1.845600e-04
Al -4.727208e+00 8.675833e-01 2.367716e+00 4.053814e-06 -1.526538e-05 -1.742615e-04
Al -4.730007e+00 8.659985e-01 7.392480e+00 6.847032e-06 -3.284946e-05 -3.119921e-05
Al -4.729454e+00 8.663029e-01 -2.666311e+00 1.880005e-05 -1.884088e-05 5.297224e-05
Al -6.299808e+00 3.583005e+00 2.371279e+00 -2.873363e-06 -2.953861e-05 -1.815263e-04
Al -6.293568e+00 3.579995e+00 7.378390e+00 -8.287456e-06 -1.064709e-05 -1.238475e-04
Al -6.294654e+00 3.572666e+00 -2.649390e+00 -2.868644e-04 1.903591e-04 2.247466e-04
Al -3.161737e+00 -1.852203e+00 2.371246e+00 4.378796e-05 5.108846e-05 -1.807311e-04
Al -3.161216e+00 -1.845248e+00 7.378420e+00 -2.564150e-06 3.817930e-05 -2.986927e-04
Al -3.168187e+00 -1.842656e+00 -2.649453e+00 4.527985e-04 6.398063e-04 6.894909e-05
Al -1.593789e+00 8.695024e-01 2.371846e+00 3.819287e-05 -5.248793e-05 -2.329655e-04
Al -1.590215e+00 8.676086e-01 7.388868e+00 2.655028e-05 -1.557637e-06 -4.211755e-05
Al -1.595880e+00 8.733617e-01 -2.663878e+00 7.677301e-05 1.214293e-03 5.727588e-04
Al -3.158935e+00 3.580497e+00 2.371892e+00 3.933705e-05 -1.452549e-05 -1.785380e-04
Al -3.158821e+00 3.584576e+00 7.388813e+00 3.541979e-05 -9.395446e-06 -1.027387e-04
Al -3.156606e+00 3.576958e+00 -2.663882e+00 -2.325036e-04 2.111162e-04 1.840666e-04
Al -2.119360e-02 -1.850004e+00 2.367745e+00 4.589064e-05 1.034870e-04 -3.351662e-04
Al -2.771239e-02 -1.853690e+00 7.380723e+00 1.141138e-05 3.498124e-05 2.839218e-04
Ga -2.978829e-02 -1.850816e+00 -2.641140e+00 1.307171e-05 -2.854605e-04 -3.177365e-04
Al -2.384848e-02 1.772814e+00 4.874654e+00 -1.050770e-05 -9.178956e-06 -5.544866e-05
Al -3.084936e-02 1.772073e+00 -5.184006e+00 -2.808588e-05 7.569673e-05 2.673890e-06
Al -2.438246e-02 1.771475e+00 -1.406594e-01 -4.905234e-05 -1.334642e-04 2.397396e-04
Al 3.114996e+00 -3.663607e+00 4.874651e+00 -9.820139e-06 7.021649e-06 -3.599872e-05
Al 3.110714e+00 -3.669064e+00 -5.184134e+00 -2.357488e-05 6.888745e-05 3.136994e-05
Al 3.113700e+00 -3.663599e+00 -1.406500e-01 -1.780391e-05 1.027402e-05 2.786379e-04
Al 1.546388e+00 -9.450728e-01 4.880446e+00 -2.359637e-05 2.129690e-05 -1.381067e-04
Ga 1.551841e+00 -9.419609e-01 -5.190308e+00 -1.116282e-04 7.483641e-05 -1.709766e-05
Al 1.553854e+00 -9.408770e-01 -1.345854e-01 1.062852e-03 9.042350e-04 8.733612e-04
Al 3.116856e+00 1.771153e+00 4.874606e+00 -9.369583e-06 -1.154612e-05 -4.155714e-05
Al 3.122341e+00 1.773189e+00 -5.183773e+00 -2.898985e-05 -5.127851e-05 1.980425e-05
Al 3.116852e+00 1.772009e+00 -1.404841e-01 -7.968561e-05 -7.536744e-05 2.981905e-04
Al 6.251595e+00 -3.662871e+00 4.880152e+00 -1.187428e-05 1.039807e-05 -3.772527e-05
Ga 6.253172e+00 -3.661088e+00 -5.181907e+00 -3.276156e-05 -1.076839e-04 6.785576e-05
Al 6.253098e+00 -3.662105e+00 -1.483181e-01 -6.116229e-05 -3.816917e-05 3.412992e-04
Al 4.683815e+00 -9.426777e-01 4.874596e+00 -8.190636e-06 1.333847e-05 -3.516975e-05
Al 4.688166e+00 -9.389902e-01 -5.183787e+00 -9.347986e-05 1.250446e-04 2.030105e-05
Al 4.684640e+00 -9.432176e-01 -1.404847e-01 -5.345345e-05 2.281569e-05 2.859334e-04
Al -3.160984e+00 1.772033e+00 4.882848e+00 1.628658e-05 -1.125622e-05 -3.570108e-05
Al -3.159799e+00 1.772734e+00 -5.188637e+00 3.030961e-05 -8.730965e-05 5.031403e-05
Al -3.160328e+00 1.772327e+00 -1.492436e-01 1.247695e-04 -4.738391e-05 2.612411e-04
Al -2.106475e-02 -3.662735e+00 4.873876e+00 1.505101e-06 1.054535e-05 -7.509297e-05
Al -1.858954e-02 -3.674778e+00 -5.194529e+00 -3.228943e-05 1.480652e-04 1.181354e-03
Al -2.091392e-02 -3.671404e+00 -1.263789e-01 1.512411e-04 9.752014e-04 1.225082e-05
Al -1.591023e+00 -9.434786e-01 4.873826e+00 -1.555441e-06 2.392881e-05 -9.212762e-05
Al -1.600174e+00 -9.351497e-01 -5.194387e+00 -4.262317e-05 3.888621e-04 7.422371e-04
Al -1.598346e+00 -9.392116e-01 -1.265882e-01 -1.682709e-04 5.914671e-04 5.601631e-04
N 1.546243e+00 8.663142e-01 4.285407e+00 -3.624602e-05 -5.946448e-05 8.867033e-05
N 1.545975e+00 9.195111e-01 -5.805391e+00 -4.220586e-05 -3.298866e-05 -3.999851e-05
N 1.546468e+00 8.710275e-01 -7.343399e-01 1.340139e-04 1.690569e-04 1.872883e-04
N -2.171968e-02 3.584276e+00 4.281412e+00 -3.230907e-05 -1.457149e-05 4.147160e-05
N -6.440298e-02 3.560663e+00 -5.800932e+00 -2.021567e-05 -3.220427e-04 1.680635e-04
N -2.648390e-02 3.581393e+00 -7.358904e-01 -9.072394e-06 2.299084e-05 1.328754e-04
N 3.114985e+00 -1.850722e+00 4.285423e+00 -3.229656e-05 5.935018e-06 6.510596e-05
N 3.160552e+00 -1.877229e+00 -5.805330e+00 3.318256e-05 -4.314090e-05 -4.418379e-05
N 3.119279e+00 -1.853072e+00 -7.343026e-01 3.421734e-05 -3.360925e-05 1.633783e-04
N -4.726851e+00 8.678416e-01 4.280698e+00 1.620229e-05 -5.131751e-05 4.123478e-05
N -4.729608e+00 8.662208e-01 -5.781176e+00 1.272318e-05 5.171049e-06 -1.295511e-05
N -4.729461e+00 8.662357e-01 -7.456230e-01 1.504342e-05 -4.133835e-05 1.514773e-04
N -6.299353e+00 3.583829e+00 4.285366e+00 2.594063e-05 -2.584044e-06 4.252932e-05
N -6.259100e+00 3.558857e+00 -5.808319e+00 2.132279e-04 -1.270705e-04 1.964317e-04
N -6.292929e+00 3.581758e+00 -7.342843e-01 -9.995296e-06 2.155784e-04 2.550617e-04
N -3.160737e+00 -1.852254e+00 4.285355e+00 -6.675224e-06 2.129511e-05 5.675659e-05
N -3.162588e+00 -1.803901e+00 -5.809242e+00 1.293872e-04 1.170687e-04 5.101329e-04
N -3.159241e+00 -1.845895e+00 -7.343382e-01 1.417140e-04 -7.006476e-05 1.600924e-04
N -1.593715e+00 8.688615e-01 4.284162e+00 6.443747e-05 -2.964651e-05 6.904378e-05
N -1.591017e+00 8.694158e-01 -5.787655e+00 4.065949e-05 -3.013903e-06 -8.585455e-05
N -1.591193e+00 8.657028e-01 -7.442135e-01 -1.016584e-04 2.389196e-04 3.144115e-04
N -3.159508e+00 3.580917e+00 4.284217e+00 4.639212e-05 1.208518e-05 3.661293e-05
N -3.157725e+00 3.582978e+00 -5.787740e+00 -9.167871e-05 6.462629e-05 1.793232e-04
N -3.160864e+00 3.584489e+00 -7.442514e-01 4.459660e-05 9.551010e-05 2.611796e-04
N -2.135956e-02 -1.850203e+00 4.283943e+00 3.762773e-05 4.531222e-05 8.644693e-05
N -6.554004e-02 -1.875181e+00 -5.797343e+00 1.807341e-04 -1.427196e-05 -7.288362e-04
N -2.223652e-02 -1.844876e+00 -6.681841e-01 -1.291595e-03 -2.894022e-03 -3.395950e-04
N -2.333214e-02 1.771800e+00 1.775859e+00 -3.569573e-05 -4.627722e-05 -2.489591e-04
N -2.494581e-02 1.772296e+00 6.786163e+00 -3.649811e-05 -7.119425e-05 6.019186e-05
N -2.260006e-02 1.772165e+00 -3.260678e+00 7.101385e-05 1.884732e-04 -1.046807e-04
N 3.114223e+00 -3.662536e+00 1.775850e+00 -4.495233e-05 -2.101984e-05 -2.776924e-04
N 3.113900e+00 -3.664119e+00 6.786189e+00 -9.155228e-05 -1.135209e-05 4.712582e-05
N 3.115095e+00 -3.662143e+00 -3.260727e+00 -1.235337e-04 4.526682e-06 -1.066240e-04
N 1.550439e+00 -9.427396e-01 1.780249e+00 1.099311e-04 5.960228e-05 -5.484948e-05
N 1.546643e+00 -9.448887e-01 6.799860e+00 -9.331432e-05 4.831921e-06 1.074589e-04
N 1.590468e+00 -9.191758e-01 -3.218889e+00 -3.794370e-04 -3.460336e-04 -1.809607e-04
N 3.115489e+00 1.772195e+00 1.775840e+00 3.423905e-05 -8.761864e-06 -2.971236e-04
N 3.118408e+00 1.770207e+00 6.785803e+00 6.684700e-06 -1.540675e-05 6.725825e-05
N 3.114456e+00 1.772754e+00 -3.262292e+00 9.860990e-05 2.055210e-04 -1.148713e-04
N 6.253020e+00 -3.662067e+00 1.770946e+00 -8.606137e-06 2.397177e-05 -2.791723e-04
N 6.251571e+00 -3.662875e+00 6.797785e+00 1.233420e-05 1.906352e-05 5.140489e-05
N 6.252690e+00 -3.660685e+00 -3.200250e+00 2.254000e-04 -3.331922e-04 1.044048e-04
N 4.683947e+00 -9.443979e-01 1.775814e+00 1.366113e-05 6.005936e-05 -3.056303e-04
N 4.683677e+00 -9.408440e-01 6.785847e+00 -2.345372e-05 5.737595e-05 4.530409e-05
N 4.683949e+00 -9.454952e-01 -3.262272e+00 1.278080e-04 3.042781e-05 -1.104133e-04
N -3.160155e+00 1.772611e+00 1.768414e+00 1.650540e-05 3.711513e-07 -2.526062e-04
N -3.161124e+00 1.772000e+00 6.799373e+00 2.232783e-05 1.325936e-05 6.872867e-05
N -3.160764e+00 1.772323e+00 -3.265386e+00 -1.328669e-04 2.285386e-04 -1.187113e-04
N -2.167789e-02 -3.667106e+00 1.785853e+00 8.919334e-06 2.786271e-05 -3.495975e-04
N -1.966461e-02 -3.663496e+00 6.787167e+00 3.407594e-05 6.728207e-05 1.232243e-04
N -2.497501e-02 -3.706883e+00 -3.274517e+00 6.660911e-04 -4.675719e-04 -1.863224e-03
N -1.595163e+00 -9.419316e-01 1.785866e+00 -6.980511e-05 4.995955e-05 -2.107248e-04
N -1.591080e+00 -9.418784e-01 6.787146e+00 8.360714e-05 4.656539e-05 9.023937e-05
N -1.631776e+00 -9.150372e-01 -3.276765e+00 -9.285052e-04 -2.259320e-03 -1.422874e-03
