108
Energy=-8.486433e+05 Lattice="9.463422e+00 0.000000e+00 0.000000e+00 -4.743432e+00 8.186155e+00 0.000000e+00 -2.638678e-02 -1.563169e-02 1.523242e+01" Stress="6.135686e-03 -1.645466e-04 -1.168291e-03 -1.717284e-04 4.651293e-03 -1.113944e-03 -1.175276e-03 -1.118003e-03 9.752987e-03" Properties=species:S:1:pos:R:3:forces:R:3 Config_type=AlGaN_super3_9_1_10.xyz
Al 1.526353e+00 8.644958e-01 2.432840e+00 3.498078e-03 3.545611e-03 6.723970e-04
Al 1.540506e+00 8.628991e-01 7.466990e+00 8.367520e-04 -2.714867e-04 5.657259e-04
Al 1.560595e+00 8.738610e-01 -2.738831e+00 2.399012e-04 -5.429796e-04 4.537790e-03
Al -2.128170e-02 3.594140e+00 2.415818e+00 -2.747821e-03 1.344770e-02 5.769597e-03
Al -3.907740e-02 3.585547e+00 7.466058e+00 9.152632e-04 -2.205048e-04 9.777158e-05
Al -1.662854e-02 3.590207e+00 -2.732276e+00 7.774230e-04 4.517076e-04 1.158004e-03
Al 3.139474e+00 -1.847216e+00 2.420128e+00 -2.929049e-04 -3.596315e-04 1.999952e-03
Al 3.139672e+00 -1.870935e+00 7.465632e+00 2.437794e-04 -6.256658e-04 1.332197e-03
Al 3.149362e+00 -1.855180e+00 -2.728529e+00 1.425415e-03 -1.320805e-04 1.680638e-03
Al -4.763902e+00 8.559856e-01 2.409750e+00 2.513297e-03 2.220482e-03 5.854032e-04
Al -4.784251e+00 8.616915e-01 7.463442e+00 1.550287e-03 -2.866899e-04 -5.559335e-04
Al -4.757985e+00 8.778922e-01 -2.699033e+00 1.128955e-03 -5.598558e-04 5.949843e-04
Al -6.365527e+00 3.599580e+00 2.402283e+00 1.535951e-03 -2.202380e-03 2.664167e-03
Al -6.363248e+00 3.581961e+00 7.478434e+00 -9.544179e-04 -1.305573e-03 8.156746e-04
Al -6.327455e+00 3.602040e+00 -2.712054e+00 2.690854e-04 -2.957853e-04 3.434736e-04
Al -3.180583e+00 -1.861490e+00 2.397391e+00 -2.212430e-04 -1.459825e-03 2.170401e-03
Al -3.190142e+00 -1.864738e+00 7.467583e+00 4.891423e-04 -1.241630e-03 9.749780e-04
Ga -3.157566e+00 -1.851038e+00 -2.697903e+00 6.109015e-04 5.197069e-06 1.905153e-03
Al -1.610435e+00 8.755137e-01 2.413646e+00 -8.091775e-04 6.368362e-04 2.312464e-04
Al -1.628904e+00 8.699147e-01 7.463100e+00 2.612574e-03 -4.481241e-04 2.075011e-04
Al -1.593991e+00 8.832464e-01 -2.713887e+00 1.504362e-03 -1.443342e-03 -1.249574e-03
Ga -3.197315e+00 3.598930e+00 2.398974e+00 1.457796e-03 1.176120e-03 -1.202706e-03
Al -3.187462e+00 3.592236e+00 7.477181e+00 -6.378919e-04 -9.347874e-04 -9.239367e-04
Al -3.181417e+00 3.614380e+00 -2.707775e+00 1.495695e-03 -1.926672e-03 -4.510352e-04
Al -3.605144e-02 -1.850006e+00 2.407693e+00 -3.291911e-04 -1.897989e-03 2.877495e-03
Ga -3.592134e-02 -1.858665e+00 7.484052e+00 2.084733e-03 -2.260845e-06 -3.997033e-04
Al -3.047164e-03 -1.845882e+00 -2.724402e+00 -7.078123e-04 -2.874795e-04 4.060817e-03
Al -3.851763e-02 1.768240e+00 4.946634e+00 -1.424655e-03 1.336943e-03 -9.565991e-04
Al -7.794683e-03 1.777535e+00 -5.249122e+00 -1.293336e-03 1.619459e-03 9.594605e-04
Ga -3.087425e-02 1.779180e+00 -1.534525e-01 -4.517436e-03 1.020418e-04 1.564851e-03
Al 3.140258e+00 -3.686269e+00 4.949948e+00 1.136104e-03 5.107045e-05 -5.407080e-04
Al 3.158512e+00 -3.671338e+00 -5.242000e+00 -2.417288e-04 3.964631e-04 5.389872e-04
Ga 3.157752e+00 -3.674322e+00 -1.741458e-01 -3.343365e-03 -9.772225e-04 2.874204e-03
Al 1.565472e+00 -9.550590e-01 4.941394e+00 -2.794477e-03 1.912650e-04 -9.829800e-04
Al 1.586657e+00 -9.494703e-01 -5.232569e+00 -1.440861e-03 1.739804e-03 -9.964485e-04
Ga 1.570086e+00 -9.598471e-01 -1.458351e-01 -3.401907e-03 5.783436e-04 8.869618e-04
Al 3.106070e+00 1.765377e+00 4.939721e+00 8.374206e-04 8.405893e-04 2.651942e-06
Al 3.130334e+00 1.784789e+00 -5.238741e+00 1.223295e-04 1.019853e-03 7.500356e-04
Ga 3.137929e+00 1.788591e+00 -1.420773e-01 -1.057578e-03 -9.664393e-04 1.284964e-03
Al 6.273128e+00 -3.688084e+00 4.940829e+00 4.622268e-04 8.273054e-04 1.087477e-03
Al 6.305767e+00 -3.676822e+00 -5.246536e+00 -2.957329e-04 1.273663e-03 -1.258655e-04
Al 6.302459e+00 -3.670393e+00 -1.533336e-01 -1.658058e-03 -1.514220e-03 4.139496e-03
Al 4.710628e+00 -9.618149e-01 4.940531e+00 -7.584368e-04 1.070888e-03 6.067634e-04
Al 4.723804e+00 -9.468658e-01 -5.246416e+00 4.934073e-04 5.317806e-05 4.632933e-04
Al 4.729503e+00 -9.475705e-01 -1.465262e-01 -2.171999e-03 7.333375e-04 3.722541e-03
Al -3.198258e+00 1.760384e+00 4.955227e+00 1.096468e-04 3.565558e-04 1.283261e-03
Ga -3.177037e+00 1.790390e+00 -5.235125e+00 -7.146767e-04 -2.674443e-04 1.456817e-03
Al -3.196150e+00 1.765167e+00 -1.583738e-01 7.247624e-03 1.783397e-03 -9.507339e-03
Ga -3.422021e-02 -3.689282e+00 4.951354e+00 -9.872178e-04 8.290708e-04 -9.963719e-04
Al -1.042038e-02 -3.664045e+00 -5.229364e+00 -1.243938e-03 -1.258740e-03 -6.625439e-04
Al -3.501673e-02 -3.667357e+00 -1.764115e-01 3.894392e-03 -3.458165e-04 5.497875e-03
Al -1.613214e+00 -9.462770e-01 4.934725e+00 -9.709688e-04 -5.781449e-04 4.736006e-04
Al -1.576911e+00 -9.390824e-01 -5.235611e+00 -3.766760e-03 2.240565e-04 6.676208e-04
Al -1.604040e+00 -9.750050e-01 -1.060889e-01 1.480880e-03 1.252535e-02 -1.514926e-02
N 1.533282e+00 8.606522e-01 4.351025e+00 4.896260e-04 -2.703263e-04 -4.390246e-04
N 1.561729e+00 8.732436e-01 -5.838000e+00 1.253081e-03 -1.518028e-03 -5.703746e-04
N 1.551410e+00 8.727488e-01 -8.070493e-01 2.008524e-03 -1.019971e-03 -5.156429e-03
N -3.731402e-02 3.589560e+00 4.347702e+00 2.310605e-04 3.118255e-04 -4.962236e-04
N -1.440906e-02 3.600438e+00 -5.843262e+00 -2.340089e-04 -3.025006e-04 -1.707259e-04
N 2.186846e-02 3.617540e+00 -8.135472e-01 2.275041e-03 1.223197e-03 -9.715565e-04
N 3.136074e+00 -1.867529e+00 4.345519e+00 -5.407944e-04 -3.866605e-04 -4.914472e-04
N 3.155411e+00 -1.857035e+00 -5.841311e+00 -5.041733e-04 -2.226549e-04 -7.527210e-04
N 3.183898e+00 -1.831032e+00 -8.085180e-01 1.929748e-03 1.198022e-03 -1.187821e-03
N -4.772335e+00 8.623996e-01 4.344604e+00 1.541488e-03 -3.945373e-04 -1.743564e-03
N -4.788410e+00 8.597212e-01 -5.854468e+00 -1.819159e-03 -2.030206e-03 -2.223594e-03
N -4.734463e+00 8.482299e-01 -7.726982e-01 3.183667e-03 -2.468566e-03 -2.241395e-03
N -6.385879e+00 3.572083e+00 4.325985e+00 -3.371373e-03 -1.796453e-03 -2.766614e-03
N -6.326762e+00 3.603780e+00 -5.835545e+00 5.691847e-04 -3.917459e-04 5.305640e-04
N -6.338958e+00 3.639639e+00 -7.823970e-01 -4.162060e-04 2.642707e-03 -2.076992e-03
N -3.181493e+00 -1.867663e+00 4.335353e+00 5.620875e-04 -1.310864e-04 -2.987292e-03
N -3.157347e+00 -1.850897e+00 -5.837424e+00 4.981053e-04 -2.384144e-05 -7.735818e-04
N -3.170686e+00 -1.859277e+00 -7.072618e-01 4.706669e-04 -1.707007e-04 2.666160e-03
N -1.629007e+00 8.708477e-01 4.341991e+00 2.507728e-03 -1.374518e-03 -2.227911e-03
N -1.569348e+00 8.652848e-01 -5.854507e+00 4.971802e-03 -2.831743e-03 -2.534128e-03
N -1.632485e+00 8.528159e-01 -8.271480e-01 -4.018633e-03 -6.022434e-03 1.948502e-02
N -3.156850e+00 3.566162e+00 4.369755e+00 1.637419e-03 -4.885061e-04 1.080794e-03
N -3.173835e+00 3.652385e+00 -5.843737e+00 1.314503e-03 2.794404e-03 -1.461573e-03
N -3.218286e+00 3.585078e+00 -7.931642e-01 -3.111013e-03 -2.846645e-04 5.953952e-03
N -3.220101e-02 -1.824314e+00 4.331211e+00 1.228411e-03 3.131455e-03 -1.561081e-03
N -6.027818e-03 -1.842750e+00 -5.785867e+00 1.986044e-03 -9.760996e-04 3.510199e-03
N -5.791195e-02 -1.864560e+00 -7.814703e-01 3.769785e-05 -3.403809e-03 -1.358811e-03
N -3.871726e-02 1.825465e+00 1.865290e+00 1.027991e-03 -2.004477e-02 -7.319484e-03
N -3.712439e-02 1.764066e+00 6.869303e+00 -1.360919e-03 6.010395e-04 -4.548869e-04
N -1.530803e-02 1.777137e+00 -3.326889e+00 -7.204390e-04 7.021467e-04 -8.374411e-04
N 3.169550e+00 -3.640526e+00 1.815291e+00 2.481079e-03 -3.091045e-03 3.101678e-04
N 3.134751e+00 -3.690842e+00 6.872459e+00 -1.964026e-03 1.012607e-03 -5.144443e-04
N 3.153962e+00 -3.679430e+00 -3.317794e+00 -2.067839e-03 6.654297e-04 1.009937e-03
N 1.544684e+00 -9.525396e-01 1.857893e+00 1.984630e-03 1.641599e-03 -3.337076e-03
N 1.592551e+00 -9.462705e-01 6.859265e+00 9.559838e-05 2.144176e-03 -1.914912e-03
N 1.583802e+00 -9.510272e-01 -3.317997e+00 -2.734082e-03 9.454067e-04 1.364119e-03
N 3.120538e+00 1.764781e+00 1.849056e+00 -2.017431e-03 2.011215e-03 5.061203e-04
N 3.109207e+00 1.771990e+00 6.866357e+00 -1.931805e-04 -9.827748e-05 -1.464419e-03
N 3.139431e+00 1.786427e+00 -3.312387e+00 2.254337e-04 1.047926e-04 1.653010e-04
N 6.282422e+00 -3.683932e+00 1.798891e+00 -1.327609e-04 1.800791e-03 -5.367137e-03
N 6.279382e+00 -3.687100e+00 6.870969e+00 -2.455922e-04 7.152182e-04 -6.649485e-04
N 6.304716e+00 -3.710048e+00 -3.329595e+00 1.399185e-05 -2.547128e-03 -1.953055e-03
N 4.708446e+00 -9.516476e-01 1.806473e+00 -3.574610e-04 1.039434e-03 -4.894792e-03
N 4.707635e+00 -9.602276e-01 6.867336e+00 -1.053009e-03 9.155617e-04 -1.546965e-03
N 4.700023e+00 -9.248466e-01 -3.327406e+00 -3.633890e-03 2.305266e-03 -2.268273e-03
N -3.176402e+00 1.743954e+00 1.745189e+00 -4.562281e-03 -5.468209e-03 6.575673e-03
N -3.201009e+00 1.773129e+00 6.878085e+00 -5.879393e-04 7.597769e-05 -4.122222e-04
N -3.176457e+00 1.788172e+00 -3.265954e+00 -1.231081e-03 4.763598e-04 2.095458e-03
N -7.839356e-02 -3.650660e+00 1.792193e+00 1.068292e-03 -6.753910e-04 -9.331984e-03
N -4.295917e-02 -3.728050e+00 6.912647e+00 3.245509e-03 -1.612759e-03 8.815651e-04
N -1.017610e-02 -3.670167e+00 -3.312775e+00 -3.786808e-04 2.774555e-04 1.485260e-03
N -1.600297e+00 -9.417689e-01 1.792906e+00 -4.765872e-04 1.655197e-03 4.800752e-03
N -1.639926e+00 -9.369829e-01 6.854352e+00 -4.520545e-03 1.982861e-03 -2.913126e-03
N -1.551094e+00 -9.195945e-01 -3.326063e+00 1.224863e-03 9.889643e-04 -1.838241e-03
