108
Energy=-1.260623e+06 Lattice="9.494002e+00 0.000000e+00 0.000000e+00 -4.748779e+00 8.217935e+00 0.000000e+00 -1.499949e-03 -8.056438e-04 1.531102e+01" Stress="-1.931590e-04 -1.359432e-04 -5.622547e-05 -1.365633e-04 -8.512238e-04 4.662224e-05 -5.098053e-05 4.071475e-05 4.299201e-05" Properties=species:S:1:pos:R:3:forces:R:3 Config_type=AlGaN_super3_18_2_30.xyz
Al 1.572566e+00 8.808767e-01 2.402378e+00 -2.405747e-05 1.369833e-04 -9.830827e-05
Al 1.554582e+00 8.821552e-01 7.505260e+00 -2.569137e-05 9.477953e-05 5.348661e-05
Al 1.560014e+00 8.827099e-01 -2.703709e+00 1.514623e-05 1.613277e-04 -7.625999e-06
Al -2.673084e-02 3.620480e+00 2.415398e+00 3.518823e-07 -1.658380e-04 -3.360186e-05
Al -2.927322e-02 3.607622e+00 7.483847e+00 -7.909890e-05 3.061395e-05 4.191971e-05
Al -1.572056e-02 3.602396e+00 -2.696703e+00 2.024314e-04 1.362573e-04 -3.199077e-05
Al 3.143234e+00 -1.876008e+00 2.403590e+00 2.798781e-04 1.561726e-04 -2.578086e-04
Al 3.145832e+00 -1.874060e+00 7.519412e+00 -5.458592e-05 1.290144e-04 -3.066466e-05
Ga 3.142457e+00 -1.860560e+00 -2.712807e+00 -4.234319e-05 -1.659595e-06 1.382314e-04
Al -4.782861e+00 8.794401e-01 2.407652e+00 7.674125e-05 -1.765387e-04 -6.644863e-05
Al -4.782299e+00 8.707103e-01 7.500185e+00 -1.552219e-05 -1.042865e-04 -1.702458e-04
Al -4.781808e+00 8.777532e-01 -2.694081e+00 9.997118e-05 -5.421667e-06 5.506564e-05
Ga -6.367064e+00 3.596033e+00 2.428825e+00 -1.372631e-04 6.084094e-06 3.326994e-06
Al -6.349963e+00 3.610992e+00 7.473965e+00 -4.312173e-05 2.439926e-05 7.667405e-05
Al -6.361258e+00 3.599980e+00 -2.691970e+00 4.865860e-06 -1.025577e-05 -1.494977e-04
Al -3.199510e+00 -1.879099e+00 2.432483e+00 -2.441566e-04 1.437346e-04 -3.940879e-04
Al -3.191606e+00 -1.868555e+00 7.493107e+00 -6.701483e-05 4.535357e-05 -4.667734e-05
Ga -3.200612e+00 -1.875553e+00 -2.705065e+00 -4.293520e-05 -3.400210e-06 1.338331e-05
Ga -1.604171e+00 8.894211e-01 2.418745e+00 8.341466e-05 -8.766348e-05 5.514052e-05
Al -1.592110e+00 8.770192e-01 7.484703e+00 -1.706544e-06 -5.448660e-05 -7.400049e-05
Ga -1.595360e+00 8.966667e-01 -2.686682e+00 1.636908e-04 -6.783381e-05 9.504009e-06
Al -3.172224e+00 3.614194e+00 2.418418e+00 2.541548e-04 -1.757170e-04 -7.255674e-05
Al -3.187540e+00 3.627862e+00 7.504314e+00 -3.802865e-06 -1.812515e-04 9.220296e-05
Ga -3.185204e+00 3.611652e+00 -2.707602e+00 1.307580e-05 -4.846300e-05 4.549272e-05
Ga -1.008233e-02 -1.861415e+00 2.439366e+00 -3.145544e-06 -7.344059e-05 7.367145e-06
Al -2.230284e-02 -1.875532e+00 7.497036e+00 3.133313e-05 1.128143e-04 -4.749114e-05
Ga -7.473652e-03 -1.865382e+00 -2.713280e+00 7.049012e-05 -9.350999e-05 4.524672e-05
Al -1.014928e-02 1.799383e+00 4.960093e+00 7.238437e-05 -7.391135e-05 -5.236544e-05
Al -1.767841e-02 1.793258e+00 -5.269992e+00 -4.406683e-05 2.805454e-04 9.023729e-05
Al -6.192261e-03 1.802163e+00 -1.406561e-01 1.284082e-04 1.812505e-05 1.719509e-05
Al 3.146704e+00 -3.698523e+00 4.960617e+00 -2.212466e-05 -2.733668e-05 -4.483201e-05
Al 3.148495e+00 -3.688282e+00 -5.283340e+00 -6.732969e-05 -2.785524e-05 -5.657387e-05
Al 3.155516e+00 -3.705305e+00 -1.270298e-01 1.653770e-05 2.042084e-05 -1.547928e-05
Ga 1.561818e+00 -9.448492e-01 4.979996e+00 -7.702851e-05 7.835247e-05 1.336060e-04
Al 1.566085e+00 -9.525192e-01 -5.295181e+00 -6.731183e-05 -5.275514e-05 7.225798e-05
Al 1.570297e+00 -9.351410e-01 -1.292548e-01 -1.141721e-04 1.534100e-04 -3.357667e-05
Al 3.126989e+00 1.792803e+00 4.974032e+00 4.071978e-05 1.509107e-04 2.568935e-05
Ga 3.135028e+00 1.782408e+00 -5.253352e+00 6.487832e-05 3.980103e-05 1.532296e-04
Al 3.130205e+00 1.780785e+00 -1.642987e-01 8.988269e-05 6.803944e-05 1.473344e-04
Al 6.302059e+00 -3.699412e+00 4.973188e+00 6.326628e-05 -6.495503e-05 1.315340e-05
Ga 6.298532e+00 -3.703076e+00 -5.277706e+00 1.869367e-05 -5.276358e-05 5.533505e-05
Al 6.291634e+00 -3.713648e+00 -1.389167e-01 1.104511e-04 3.276021e-05 -4.948656e-05
Ga 4.723037e+00 -9.612855e-01 4.953650e+00 -4.333516e-05 4.591559e-05 7.675724e-06
Al 4.711296e+00 -9.545261e-01 -5.277862e+00 -6.280632e-05 -2.247806e-05 -7.320176e-06
Ga 4.716696e+00 -9.462618e-01 -1.135051e-01 -4.671580e-05 -3.712147e-05 4.716959e-05
Ga -3.193173e+00 1.801430e+00 4.976583e+00 1.536197e-04 -1.784042e-05 1.157530e-04
Ga -3.186787e+00 1.792482e+00 -5.287382e+00 8.335539e-05 4.069821e-05 8.290252e-05
Al -3.193700e+00 1.797001e+00 -1.270756e-01 -4.339526e-07 1.097687e-07 8.153484e-08
Al -2.234609e-02 -3.697992e+00 4.975309e+00 1.841594e-04 -6.484769e-05 -2.946514e-06
Al -1.426774e-02 -3.687782e+00 -5.281059e+00 -1.172350e-04 -1.652329e-04 -7.684102e-05
Ga -1.881594e-02 -3.705329e+00 -1.330588e-01 4.715215e-05 4.953117e-05 3.889626e-05
Al -1.607783e+00 -9.647303e-01 4.985505e+00 -1.766786e-04 2.485647e-04 -1.018732e-05
Ga -1.594045e+00 -9.497409e-01 -5.289139e+00 -8.210397e-05 -7.362503e-05 3.306284e-05
Ga -1.602758e+00 -9.476637e-01 -1.292753e-01 -7.041038e-05 1.219680e-05 1.996543e-05
N 1.560797e+00 9.227084e-01 4.323789e+00 -5.716264e-05 -4.697024e-05 5.878676e-05
N 1.518240e+00 8.605544e-01 -5.894264e+00 -3.453525e-05 -5.768419e-07 1.864356e-05
N 1.552925e+00 8.699583e-01 -7.710177e-01 1.288915e-04 -3.744303e-06 2.511806e-05
N -2.467011e-02 3.615161e+00 4.346904e+00 -1.276531e-06 9.342235e-06 1.150351e-05
N -6.551620e-02 3.586499e+00 -5.913206e+00 -1.905850e-05 -2.072217e-04 1.480239e-05
N -2.731764e-02 3.611886e+00 -7.655701e-01 -2.930903e-05 1.422850e-05 -2.987738e-05
N 3.134378e+00 -1.916415e+00 4.312043e+00 -8.635307e-06 -8.158292e-05 2.517190e-05
N 3.145827e+00 -1.869983e+00 -5.872056e+00 -3.993195e-05 1.396095e-06 -1.720651e-05
N 3.102102e+00 -1.892492e+00 -7.229470e-01 9.491704e-07 -8.735637e-05 -1.614175e-06
N -4.817542e+00 9.046695e-01 4.319805e+00 9.196783e-05 1.134978e-05 -9.041444e-05
N -4.779988e+00 8.295159e-01 -5.911722e+00 3.595289e-05 2.639919e-05 4.844723e-05
N -4.766748e+00 9.174107e-01 -7.710341e-01 -1.042514e-05 6.866662e-05 -4.338153e-05
N -6.357404e+00 3.610776e+00 4.415460e+00 -9.550221e-05 -5.901027e-05 -3.608907e-05
N -6.310530e+00 3.631918e+00 -5.924125e+00 -2.420956e-05 3.652579e-05 -1.174335e-04
N -6.395565e+00 3.591799e+00 -7.693895e-01 -1.543546e-04 -7.402298e-06 1.122247e-04
N -3.145328e+00 -1.896977e+00 4.347037e+00 1.331834e-04 -5.357303e-05 3.661963e-04
N -3.229271e+00 -1.845917e+00 -5.910220e+00 -3.214820e-05 1.670227e-05 5.547429e-05
N -3.194071e+00 -1.914518e+00 -7.369582e-01 -7.903806e-06 -3.171957e-05 2.284702e-06
N -1.565030e+00 8.518799e-01 4.399144e+00 1.491338e-05 -2.542430e-05 7.492196e-06
N -1.556380e+00 9.032521e-01 -5.918954e+00 1.814737e-04 -4.986902e-05 -7.570801e-07
N -1.601931e+00 9.306821e-01 -7.042112e-01 2.297819e-05 -1.677576e-05 -5.802293e-05
N -3.184263e+00 3.661652e+00 4.335855e+00 -2.653326e-04 1.357466e-04 1.171878e-04
N -3.185001e+00 3.668111e+00 -5.893256e+00 5.361986e-05 7.190092e-05 -4.398470e-05
N -3.140926e+00 3.593023e+00 -7.299954e-01 -1.102859e-04 2.926331e-05 -1.723525e-05
N -5.979205e-02 -1.886643e+00 4.409234e+00 1.944382e-04 -2.712567e-04 -7.532524e-05
N 2.040833e-02 -1.893006e+00 -5.900163e+00 9.025392e-05 4.351630e-05 3.386603e-05
N 2.648894e-02 -1.842281e+00 -7.399953e-01 8.149421e-05 -1.347095e-04 -3.878159e-05
N 2.558405e-02 1.816443e+00 1.781437e+00 -1.144271e-05 1.769195e-04 1.274744e-04
N -1.491770e-02 1.788956e+00 6.874483e+00 -1.341819e-05 1.467302e-04 1.513583e-05
N 2.132438e-02 1.813476e+00 -3.341244e+00 5.208576e-05 -9.758162e-05 -2.901062e-05
N 3.148078e+00 -3.698957e+00 1.797791e+00 6.367458e-06 1.050431e-04 -2.882510e-05
N 3.142646e+00 -3.689764e+00 6.884807e+00 -6.095677e-05 1.010637e-04 -9.475227e-05
N 3.191952e+00 -3.717620e+00 -3.364808e+00 -2.854166e-05 7.577134e-05 1.365263e-05
N 1.601565e+00 -9.243444e-01 1.790543e+00 -1.204133e-04 6.977888e-05 1.214141e-04
N 1.566639e+00 -9.495248e-01 6.957607e+00 1.125509e-04 -3.430659e-04 -2.256672e-05
N 1.564108e+00 -8.992124e-01 -3.376013e+00 -1.710511e-05 9.012873e-05 -1.380901e-04
N 3.140395e+00 1.740830e+00 1.757931e+00 4.002398e-08 3.700991e-05 -2.131139e-04
N 3.135532e+00 1.779843e+00 6.890844e+00 6.676546e-05 -9.437859e-06 -5.883677e-05
N 3.140365e+00 1.785700e+00 -3.263470e+00 -9.862190e-05 5.065886e-05 -9.519505e-06
N 6.264538e+00 -3.674207e+00 1.785023e+00 2.530836e-06 7.795235e-05 5.505946e-05
N 6.300563e+00 -3.693543e+00 6.892670e+00 5.879895e-05 -9.156653e-06 -5.343147e-05
N 6.307680e+00 -3.745865e+00 -3.296550e+00 -1.196273e-04 -7.532163e-05 3.634465e-05
N 4.726651e+00 -9.506942e-01 1.868958e+00 -1.025359e-04 -1.633045e-04 1.933194e-04
N 4.718534e+00 -9.555885e-01 6.930803e+00 -8.206545e-05 -3.724281e-05 3.734045e-05
N 4.722837e+00 -9.012557e-01 -3.358918e+00 -7.532937e-05 9.375232e-06 -6.524234e-05
N -3.232289e+00 1.812418e+00 1.794032e+00 -1.105085e-04 -1.003314e-04 4.495469e-05
N -3.193147e+00 1.791579e+00 6.955112e+00 1.352475e-04 1.354737e-04 1.405562e-05
N -3.229881e+00 1.760807e+00 -3.314994e+00 3.571336e-06 -1.066529e-05 -1.354120e-05
N 1.394285e-02 -3.718421e+00 1.831946e+00 -9.639948e-05 -9.459963e-05 -4.476883e-05
N -1.699483e-02 -3.695953e+00 6.888452e+00 1.155529e-04 3.178577e-05 -7.892028e-05
N -6.717478e-02 -3.719887e+00 -3.358027e+00 1.134508e-05 4.722376e-05 6.508390e-05
N -1.646390e+00 -9.772774e-01 1.833648e+00 -1.112367e-04 -4.701490e-05 -5.805713e-05
N -1.607155e+00 -9.564785e-01 6.905122e+00 -1.225438e-04 -5.729233e-05 -3.213427e-05
N -1.605313e+00 -9.454770e-01 -3.321823e+00 -1.270108e-04 1.582806e-05 2.992719e-05
