108
Energy=-1.397949e+06 Lattice="9.505692e+00 0.000000e+00 0.000000e+00 -4.756401e+00 8.228437e+00 0.000000e+00 -3.960625e-03 2.089217e-03 1.534120e+01" Stress="-2.123798e-03 -2.762323e-04 -1.430595e-05 -2.863254e-04 -2.653098e-03 8.201851e-05 -1.649910e-05 7.286694e-05 -2.349883e-03" Properties=species:S:1:pos:R:3:forces:R:3 Config_type=AlGaN_super3_21_2_21.xyz
Al 1.569779e+00 8.665670e-01 2.405967e+00 1.040650e-03 5.648418e-04 -2.122172e-04
Al 1.572128e+00 8.784483e-01 7.523972e+00 -1.835421e-04 1.451127e-04 -1.724656e-05
Al 1.567436e+00 8.669388e-01 -2.715496e+00 -5.101549e-04 -5.667891e-04 1.538856e-03
Al -1.037007e-02 3.624577e+00 2.429089e+00 2.098247e-04 1.701759e-04 -4.183035e-04
Al -1.872686e-02 3.620264e+00 7.509928e+00 -3.935155e-04 3.869086e-04 2.751688e-04
Al -2.395272e-02 3.608516e+00 -2.706955e+00 -1.532767e-04 5.287552e-05 2.676767e-04
Al 3.147132e+00 -1.855384e+00 2.404341e+00 -9.996153e-04 -2.974457e-04 -1.013701e-03
Al 3.139212e+00 -1.865753e+00 7.544700e+00 7.462053e-04 -1.139556e-03 -1.937375e-04
Ga 3.133819e+00 -1.862893e+00 -2.715159e+00 -6.143791e-05 8.201183e-05 3.245011e-04
Al -4.791556e+00 8.720829e-01 2.403128e+00 -2.760040e-04 -2.802109e-04 5.700398e-05
Al -4.795183e+00 8.839423e-01 7.533539e+00 -1.118098e-05 -1.651277e-04 4.599317e-04
Al -4.778931e+00 8.872194e-01 -2.710960e+00 1.304820e-04 6.903270e-07 3.484924e-04
Ga -6.377517e+00 3.613257e+00 2.401253e+00 1.689834e-04 -5.796216e-05 6.950280e-06
Al -6.365923e+00 3.608993e+00 7.518983e+00 4.905180e-04 3.363170e-04 1.129125e-04
Ga -6.361314e+00 3.604420e+00 -2.697674e+00 -1.435385e-04 1.444705e-04 4.957738e-04
Al -3.194035e+00 -1.876115e+00 2.394291e+00 9.801025e-05 1.800435e-04 -4.344448e-04
Al -3.194251e+00 -1.879698e+00 7.513541e+00 -1.906783e-04 -2.974765e-05 3.750016e-04
Ga -3.180028e+00 -1.865321e+00 -2.680999e+00 -1.971652e-04 4.661386e-05 2.128102e-04
Ga -1.606333e+00 8.691313e-01 2.400788e+00 -4.637319e-05 -1.271683e-04 -1.398944e-04
Ga -1.605109e+00 8.831828e-01 7.525762e+00 3.275456e-04 -3.170480e-04 9.467259e-05
Al -1.610159e+00 8.769763e-01 -2.696932e+00 -3.361050e-05 1.350121e-04 6.213639e-05
Ga -3.199770e+00 3.623294e+00 2.392879e+00 3.227706e-04 6.852177e-05 -1.762148e-04
Al -3.199680e+00 3.629509e+00 7.561262e+00 8.461617e-06 -1.117926e-03 -3.935492e-04
Ga -3.192544e+00 3.610338e+00 -2.718611e+00 2.977445e-04 -3.801240e-04 1.451891e-04
Al -1.642819e-02 -1.857152e+00 2.377921e+00 -2.890239e-04 -6.617700e-04 4.960299e-05
Al -1.272660e-02 -1.873957e+00 7.549114e+00 -4.072562e-04 -1.408246e-04 -4.371699e-04
Al -9.102926e-03 -1.854477e+00 -2.700591e+00 -8.054676e-04 4.892792e-04 -5.875181e-05
Al 1.184067e-03 1.801278e+00 4.964898e+00 4.154561e-04 -4.641109e-04 1.587600e-04
Ga -1.332508e-02 1.789489e+00 -5.244606e+00 -2.360665e-04 2.080552e-04 4.231248e-04
Ga -9.004191e-03 1.784386e+00 -1.620240e-01 -4.564068e-05 1.631237e-07 -5.271134e-04
Ga 3.161543e+00 -3.702023e+00 4.983395e+00 -3.827298e-04 4.823497e-04 -2.966411e-05
Al 3.138911e+00 -3.706468e+00 -5.282014e+00 1.812911e-04 1.025827e-03 -2.096371e-04
Ga 3.153413e+00 -3.700912e+00 -1.334144e-01 -3.048305e-04 3.703852e-04 -1.122739e-04
Ga 1.559064e+00 -9.388477e-01 4.972730e+00 -3.239563e-04 3.959797e-04 1.188045e-04
Al 1.563971e+00 -9.579848e-01 -5.274300e+00 -9.652474e-05 -1.201936e-04 4.237017e-04
Al 1.549710e+00 -9.474287e-01 -1.412454e-01 5.423467e-04 1.076448e-04 -5.983987e-04
Al 3.128404e+00 1.790806e+00 4.977504e+00 3.268440e-05 -4.204278e-04 -4.671372e-04
Al 3.151596e+00 1.784171e+00 -5.274084e+00 3.170018e-04 1.035748e-04 1.196411e-04
Al 3.150352e+00 1.785369e+00 -1.530979e-01 -3.366981e-04 -3.690866e-04 1.700744e-04
Al 6.312671e+00 -3.707882e+00 4.978450e+00 -5.956242e-04 2.261393e-04 -4.025706e-05
Ga 6.319523e+00 -3.711450e+00 -5.282071e+00 1.677973e-04 1.103756e-04 3.660211e-04
Al 6.321739e+00 -3.701670e+00 -1.352899e-01 2.490488e-04 1.878642e-05 -1.499439e-04
Ga 4.729784e+00 -9.502654e-01 4.967055e+00 -3.482596e-04 -6.728992e-05 1.851180e-05
Ga 4.723491e+00 -9.417851e-01 -5.274918e+00 -1.716787e-04 -1.302310e-04 3.390942e-04
Ga 4.736860e+00 -9.334390e-01 -1.268664e-01 -5.021861e-04 -6.700779e-05 -1.228842e-03
Ga -3.210645e+00 1.791710e+00 4.985761e+00 2.643967e-05 -6.202449e-05 1.759089e-04
Al -3.209990e+00 1.800977e+00 -5.264494e+00 4.204342e-04 1.056617e-04 9.727004e-04
Al -3.208962e+00 1.783186e+00 -1.604250e-01 4.079043e-04 -3.652196e-04 -3.404764e-04
Ga -3.930241e-02 -3.692399e+00 4.993348e+00 4.575289e-04 -4.832867e-05 4.103554e-04
Al -1.157735e-02 -3.698812e+00 -5.280981e+00 -4.218370e-04 -2.114518e-04 1.442371e-04
Al -3.169338e-02 -3.683856e+00 -1.558410e-01 8.099497e-05 8.967853e-06 -6.318140e-05
Ga -1.604659e+00 -9.659026e-01 4.967320e+00 -2.064473e-04 1.010742e-05 2.408932e-04
Ga -1.589117e+00 -9.584962e-01 -5.252503e+00 -2.753011e-04 -3.442358e-05 6.387674e-04
Al -1.593865e+00 -9.599094e-01 -1.539162e-01 -6.070493e-05 -1.172593e-04 3.841727e-04
N 1.564776e+00 9.198692e-01 4.328638e+00 -1.517555e-04 2.121017e-04 9.799948e-05
N 1.601989e+00 8.533698e-01 -5.895506e+00 3.322580e-04 -1.348941e-04 -3.159836e-04
N 1.610133e+00 8.459729e-01 -7.931655e-01 1.844529e-04 -1.348659e-05 1.569017e-04
N 1.786079e-02 3.597974e+00 4.347389e+00 4.995714e-04 -7.605059e-05 -1.258540e-04
N -6.147041e-02 3.629710e+00 -5.924272e+00 -4.476561e-04 1.762298e-04 -3.455962e-04
N 1.730583e-02 3.644287e+00 -8.031152e-01 9.777399e-05 4.703967e-06 2.688135e-05
N 3.140027e+00 -1.867782e+00 4.309625e+00 2.425298e-04 2.838693e-04 -3.004946e-04
N 3.107225e+00 -1.892713e+00 -5.883446e+00 -3.576796e-04 -3.992753e-04 3.361156e-04
N 3.106278e+00 -1.843454e+00 -7.424292e-01 -4.109370e-04 2.735767e-04 2.592562e-04
N -4.825505e+00 9.035456e-01 4.317147e+00 -3.925417e-04 5.010491e-04 4.093537e-04
N -4.779193e+00 9.252982e-01 -5.897422e+00 -2.046664e-04 8.252611e-05 -5.469785e-04
N -4.780839e+00 9.251897e-01 -7.949481e-01 2.741935e-04 1.131792e-04 -2.674179e-04
N -6.405386e+00 3.594565e+00 4.389890e+00 6.710897e-05 -3.520570e-04 -1.969314e-04
N -6.320383e+00 3.585927e+00 -5.900459e+00 5.513622e-04 2.978309e-04 1.954514e-05
N -6.361934e+00 3.614430e+00 -7.085242e-01 -2.038963e-04 3.053843e-05 -1.175722e-04
N -3.192362e+00 -1.919834e+00 4.315229e+00 3.102174e-04 -3.113109e-04 3.527903e-04
N -3.184412e+00 -1.869622e+00 -5.925968e+00 -1.796155e-05 9.554703e-05 -5.392868e-04
N -3.150142e+00 -1.892646e+00 -7.104355e-01 4.185096e-05 1.282236e-04 -8.351314e-05
N -1.572039e+00 9.025514e-01 4.381698e+00 6.377050e-04 1.323151e-04 -2.631384e-04
N -1.645515e+00 9.024061e-01 -5.849260e+00 2.025348e-04 -1.016241e-04 3.365119e-05
N -1.650545e+00 8.529189e-01 -7.717740e-01 -3.895579e-04 4.451531e-04 -3.082277e-04
N -3.201248e+00 3.624707e+00 4.354697e+00 7.245013e-05 -4.184313e-04 -4.355849e-04
N -3.194084e+00 3.615895e+00 -5.860696e+00 4.164741e-05 -1.802383e-04 7.051747e-05
N -3.233802e+00 3.598874e+00 -7.349491e-01 -6.748856e-06 -3.142588e-04 2.875659e-05
N -1.851296e-02 -1.868275e+00 4.287644e+00 1.223462e-04 -6.428076e-05 -6.367894e-04
N 2.184036e-02 -1.889607e+00 -5.887600e+00 2.410879e-04 -3.243264e-04 -2.748439e-04
N -1.423186e-02 -1.863090e+00 -7.715442e-01 1.000738e-04 -2.173465e-04 3.065956e-05
N 2.226282e-02 1.815856e+00 1.819594e+00 -4.886735e-05 -5.702030e-05 2.520555e-04
N 2.499286e-02 1.811611e+00 6.887744e+00 1.874642e-04 -1.409952e-04 -4.073324e-04
N -1.906606e-02 1.785919e+00 -3.256015e+00 -2.238880e-04 -5.258647e-05 9.975090e-06
N 3.195386e+00 -3.676073e+00 1.838010e+00 5.254722e-04 2.039473e-04 2.363472e-04
N 3.142247e+00 -3.695824e+00 6.966986e+00 2.919327e-04 4.941910e-04 5.612838e-04
N 3.191185e+00 -3.723489e+00 -3.364667e+00 1.975537e-06 1.436908e-04 -5.455946e-04
N 1.562891e+00 -9.495706e-01 1.785134e+00 -4.971512e-04 5.943911e-04 2.307651e-04
N 1.560537e+00 -9.532849e-01 6.958085e+00 -2.175704e-04 4.572817e-04 2.392593e-04
N 1.519301e+00 -9.289913e-01 -3.353938e+00 1.237413e-04 4.278872e-05 -9.094930e-04
N 3.143350e+00 1.739424e+00 1.764594e+00 -6.299704e-04 -5.817888e-04 -1.567083e-04
N 3.141685e+00 1.785576e+00 6.902221e+00 -8.293250e-05 -7.629357e-05 -3.070999e-04
N 3.143359e+00 1.742018e+00 -3.350361e+00 4.272651e-04 -1.435920e-05 -7.325137e-04
N 6.270060e+00 -3.677395e+00 1.774003e+00 -5.038708e-04 -2.309273e-04 6.464295e-04
N 6.315572e+00 -3.698178e+00 6.905419e+00 1.618872e-04 7.228888e-05 -2.848373e-04
N 6.279403e+00 -3.720395e+00 -3.314264e+00 1.888655e-04 -1.800023e-04 -3.220323e-04
N 4.730850e+00 -9.479088e-01 1.849524e+00 6.323267e-04 6.135504e-05 1.266183e-03
N 4.726685e+00 -9.503190e-01 6.960588e+00 -4.533231e-04 6.024962e-05 1.968774e-04
N 4.736264e+00 -9.070991e-01 -3.302841e+00 -2.266023e-04 -1.371651e-05 -6.576920e-05
N -3.237498e+00 1.760620e+00 1.751977e+00 -1.737968e-04 -6.560025e-05 1.365338e-05
N -3.242151e+00 1.817135e+00 6.955259e+00 1.512415e-04 9.956035e-04 2.825333e-04
N -3.195102e+00 1.740683e+00 -3.342382e+00 2.374351e-04 -1.690731e-04 -4.167581e-04
N -3.022595e-02 -3.649089e+00 1.750909e+00 2.182145e-05 7.250320e-04 -4.436956e-05
N -2.068617e-02 -3.693488e+00 6.975863e+00 -6.176286e-04 1.572011e-04 3.991302e-04
N -2.612017e-02 -3.645734e+00 -3.358371e+00 7.339368e-05 1.934033e-04 -3.846051e-04
N -1.606801e+00 -9.984342e-01 1.767622e+00 2.937884e-04 -7.751704e-05 9.958956e-05
N -1.600408e+00 -1.004061e+00 6.943525e+00 1.279707e-04 -2.446290e-04 6.348730e-05
N -1.562323e+00 -9.307101e-01 -3.277953e+00 6.634593e-04 -3.843157e-04 3.460351e-04
