108
Energy=-2679663.481377 Lattice="9.674909 0.000000 0.000000 -4.837571 8.377825 0.000000 -0.000116 -0.000326 15.708522" Stress="-0.000000 0.000000 -0.000000 -0.000000 0.000000 0.000000 0.000000 -0.000000 -0.000000" Properties=species:S:1:pos:R:3:forces:R:3
Al 1.582931 0.894739 2.482015 0.000008 -0.000011 0.000011
Ga 1.581094 0.894421 7.686894 -0.000002 0.000006 0.000000
Ga 1.588251 0.889829 -2.756645 -0.000002 0.000008 0.000019
Al -0.024934 3.676887 2.481488 0.000005 -0.000013 0.000012
Ga -0.023231 3.674840 7.686975 -0.000003 0.000004 0.000002
Ga -0.024182 3.682752 -2.756614 -0.000002 0.000004 -0.000003
Al 3.201393 -1.901810 2.471398 0.000002 -0.000009 0.000012
Ga 3.201040 -1.901896 7.699085 -0.000001 0.000002 0.000005
Ga 3.199960 -1.903095 -2.756676 -0.000003 0.000005 0.000011
Ga -4.876051 0.882112 2.473829 0.000003 -0.000007 0.000012
Ga -4.857079 0.892591 7.712039 -0.000003 0.000003 0.000003
Ga -4.854253 0.894728 -2.771051 -0.000002 0.000010 0.000009
Ga -6.486522 3.675027 2.473624 0.000003 -0.000003 0.000011
Ga -6.475024 3.682469 7.700874 -0.000004 0.000003 0.000002
Ga -6.475555 3.682006 -2.758919 -0.000005 0.000005 0.000010
Ga -3.263793 -1.908327 2.474066 0.000006 -0.000005 0.000012
Ga -3.249539 -1.903019 7.700579 -0.000006 0.000003 0.000003
Ga -3.248485 -1.903434 -2.758943 -0.000006 0.000003 0.000012
Ga -1.617781 0.901291 2.485383 0.000005 -0.000012 0.000010
Ga -1.629197 0.899983 7.699575 0.000002 0.000005 0.000002
Ga -1.640032 0.896268 -2.769572 -0.000004 0.000008 0.000006
Ga -3.235584 3.691358 2.474190 0.000005 -0.000008 0.000011
Ga -3.245288 3.679291 7.712360 0.000000 0.000005 0.000004
Ga -3.243989 3.676020 -2.769673 -0.000002 0.000003 0.000006
Ga -0.011230 -1.895037 2.474622 0.000009 -0.000004 0.000010
Ga -0.019331 -1.900137 7.700976 -0.000002 0.000002 0.000006
Ga -0.020078 -1.899102 -2.757609 -0.000004 0.000003 0.000010
Al -0.016890 1.825768 5.060548 0.000006 0.000006 0.000013
Ga -0.031775 1.821866 -5.384587 0.000004 0.000001 -0.000001
Ga -0.019735 1.824087 -0.121115 0.000018 -0.000026 -0.000003
Ga 3.211890 -3.767933 5.064619 0.000012 -0.000001 0.000008
Ga 3.199148 -3.772181 -5.387297 0.000006 0.000002 -0.000000
Ga 3.207294 -3.762697 -0.118838 0.000010 -0.000012 0.000008
Ga 1.592027 -0.959050 5.061359 0.000006 -0.000004 0.000006
Ga 1.589734 -0.968814 -5.385072 0.000004 0.000002 0.000004
Ga 1.594479 -0.966481 -0.114562 0.000012 -0.000007 0.000013
Ga 3.187294 1.817134 5.076930 0.000004 0.000004 0.000010
Ga 3.208699 1.820631 -5.387245 0.000002 0.000001 0.000005
Ga 3.197680 1.817541 -0.129183 0.000009 -0.000016 0.000006
Ga 6.415516 -3.775224 5.072141 0.000002 0.000003 0.000012
Ga 6.424961 -3.765043 -5.385873 0.000002 0.000000 0.000002
Ga 6.421096 -3.767194 -0.124800 0.000017 -0.000012 0.000008
Ga 4.807030 -0.973114 5.079324 0.000002 0.000002 0.000012
Ga 4.818280 -0.963260 -5.383329 0.000003 0.000001 0.000006
Ga 4.810447 -0.972344 -0.132610 0.000015 -0.000016 0.000009
Ga -3.238992 1.821407 5.086543 0.000009 -0.000002 0.000008
Al -3.246185 1.821726 -5.387697 0.000002 0.000002 0.000003
Ga -3.246570 1.820596 -0.137744 0.000009 -0.000016 0.000009
Ga -0.021836 -3.764413 5.091007 0.000005 -0.000001 0.000013
Ga -0.017912 -3.771083 -5.382812 0.000003 0.000000 0.000003
Ga -0.021481 -3.764851 -0.145090 0.000007 -0.000014 0.000011
Ga -1.631223 -0.960817 5.088938 0.000006 -0.000005 0.000011
Ga -1.639093 -0.960896 -5.387292 0.000004 0.000001 0.000002
Ga -1.635838 -0.968005 -0.140043 0.000011 -0.000014 0.000017
N 1.546009 0.916840 4.408797 -0.000004 -0.000002 -0.000013
N 1.585509 0.893689 -6.035701 -0.000000 -0.000002 0.000001
N 1.586551 0.889184 -0.774901 -0.000015 0.000011 -0.000018
N -0.024400 3.633461 4.407987 -0.000006 -0.000007 -0.000016
N -0.023314 3.679842 -6.037926 -0.000005 0.000003 0.000000
N -0.025523 3.681889 -0.775097 -0.000016 0.000020 0.000001
N 3.202190 -1.902412 4.391558 -0.000004 -0.000000 -0.000013
N 3.202592 -1.902227 -6.026770 -0.000005 0.000001 -0.000000
N 3.198104 -1.903800 -0.773278 -0.000014 0.000015 -0.000012
N -4.860784 0.892205 4.450349 -0.000001 -0.000008 -0.000012
N -4.817152 0.915858 -6.006304 0.000000 0.000002 0.000001
N -4.859860 0.891963 -0.782242 -0.000015 0.000019 -0.000006
N -6.471751 3.683214 4.449826 0.000002 -0.000002 -0.000013
N -6.473422 3.683658 -6.026466 -0.000001 0.000001 -0.000002
N -6.476800 3.681359 -0.773402 -0.000011 0.000016 -0.000007
N -3.247375 -1.900491 4.452098 0.000001 -0.000006 -0.000013
N -3.248481 -1.901977 -6.026563 -0.000002 0.000001 -0.000002
N -3.249421 -1.904260 -0.773434 -0.000017 0.000020 -0.000009
N -1.592135 0.916463 4.468282 -0.000001 -0.000004 -0.000011
N -1.675204 0.918967 -6.015264 -0.000007 -0.000002 0.000004
N -1.633100 0.895717 -0.782248 -0.000008 0.000014 -0.000009
N -3.248681 3.683636 4.448571 -0.000003 0.000001 -0.000011
N -3.247136 3.633981 -6.006186 -0.000005 -0.000004 0.000000
N -3.241335 3.682129 -0.780988 -0.000009 0.000019 -0.000009
N -0.024153 -1.902498 4.450572 -0.000001 0.000001 -0.000013
N -0.022720 -1.901529 -6.024360 -0.000002 0.000001 0.000002
N -0.017351 -1.897255 -0.772044 -0.000010 0.000014 -0.000011
N 0.020186 1.847165 1.871504 -0.000015 0.000025 -0.000001
N -0.021859 1.822381 6.991715 0.000002 -0.000012 -0.000006
N -0.022032 1.822042 -3.403581 0.000002 -0.000008 -0.000005
N 3.247836 -3.739448 1.878385 0.000002 0.000005 -0.000011
N 3.202305 -3.763461 7.052249 -0.000003 -0.000002 -0.000004
N 3.203824 -3.763626 -3.404763 -0.000003 -0.000000 -0.000001
N 1.632836 -0.942120 1.881786 -0.000004 -0.000004 -0.000019
N 1.592607 -0.969202 7.046831 0.000000 -0.000002 -0.000000
N 1.590652 -0.969939 -3.403354 -0.000001 -0.000000 -0.000013
N 3.155218 1.794453 1.856794 -0.000003 0.000009 -0.000019
N 3.201917 1.818278 7.061029 0.000005 -0.000006 0.000002
N 3.200446 1.820330 -3.403461 -0.000001 -0.000007 -0.000013
N 6.379898 -3.790039 1.860295 -0.000012 0.000005 -0.000012
N 6.424533 -3.765176 7.054073 0.000007 -0.000002 -0.000003
N 6.425246 -3.764871 -3.402773 0.000007 -0.000002 -0.000006
N 4.769503 -0.995639 1.851031 -0.000007 0.000010 -0.000015
N 4.811769 -0.969466 7.062410 0.000002 -0.000001 -0.000003
N 4.813541 -0.971976 -3.400156 0.000001 -0.000003 -0.000009
N -3.247830 1.818741 1.841963 -0.000004 0.000005 -0.000017
N -3.247431 1.821607 7.063263 -0.000001 -0.000005 0.000001
N -3.246647 1.821311 -3.460773 0.000001 -0.000007 -0.000008
N -0.024376 -3.764902 1.833946 -0.000004 0.000002 -0.000013
N -0.019976 -3.765156 7.071365 0.000003 -0.000005 -0.000004
N -0.022562 -3.763832 -3.398011 -0.000000 -0.000001 -0.000007
N -1.637959 -0.968196 1.841071 -0.000007 0.000003 -0.000016
N -1.634577 -0.967568 7.070165 0.000002 -0.000002 -0.000002
N -1.635196 -0.970449 -3.401687 0.000000 -0.000003 -0.000007
