108
Energy=-757092.628451 Lattice="9.434103 0.000000 0.000000 -4.721630 8.165793 0.000000 -0.000584 0.001615 15.167175" Stress="-0.000000 -0.000003 0.000000 -0.000003 -0.000002 0.000001 0.000000 0.000001 0.000009" Properties=species:S:1:pos:R:3:forces:R:3
Al 1.549192 0.879895 2.393189 0.000246 -0.002122 -0.000815
Al 1.547872 0.868257 7.433505 0.000197 -0.000337 0.000241
Al 1.550280 0.872628 -2.695513 -0.000531 -0.000003 -0.001274
Al -0.023480 3.588820 2.386720 0.000314 0.000730 0.000137
Al -0.022885 3.590861 7.427554 -0.000057 -0.000085 0.000031
Al -0.021605 3.579637 -2.680326 0.000013 -0.000246 0.000087
Al 3.130244 -1.853928 2.400609 -0.000100 -0.000107 -0.000642
Al 3.118079 -1.855504 7.416581 -0.000216 0.000173 -0.000153
Al 3.126282 -1.853567 -2.686383 -0.002906 -0.001574 0.003751
Al -4.747809 0.869515 2.397967 -0.002349 -0.002393 0.000763
Al -4.741730 0.877057 7.416291 0.000230 -0.000005 -0.000128
Al -4.754127 0.871214 -2.678759 -0.000192 0.000925 0.000143
Al -6.318262 3.589562 2.377500 -0.000230 -0.000106 -0.000665
Al -6.323177 3.587457 7.441714 -0.000093 -0.000011 -0.000076
Al -6.317788 3.580172 -2.682902 0.000109 0.000068 -0.000309
Al -3.169848 -1.854976 2.368927 -0.000052 0.000135 -0.000180
Al -3.166711 -1.860202 7.437107 -0.000046 -0.000015 -0.000112
Ga -3.159077 -1.856513 -2.663077 0.000604 -0.000217 0.000096
Al -1.589583 0.875758 2.387463 0.001365 -0.002415 0.001616
Al -1.599084 0.880044 7.440425 0.000433 -0.000125 0.000009
Al -1.583472 0.865151 -2.687822 0.000677 0.000253 -0.001753
Al -3.167325 3.596657 2.382841 -0.000045 -0.000960 -0.000268
Al -3.163161 3.587205 7.447357 0.000143 -0.000119 -0.000035
Ga -3.171076 3.598432 -2.686899 0.000557 -0.000240 -0.000403
Al -0.018719 -1.851582 2.372583 -0.001877 -0.001008 0.003646
Al -0.013369 -1.845425 7.455465 0.000343 0.000025 -0.000617
Al -0.022015 -1.849879 -2.690240 0.000046 -0.000034 0.000137
Al -0.017879 1.785256 4.915362 -0.000242 -0.000088 0.000142
Al -0.024690 1.776757 -5.215540 -0.000107 0.000184 0.000455
Al -0.026497 1.783426 -0.141383 0.003228 -0.001029 -0.004230
Al 3.134393 -3.669970 4.909728 -0.000147 0.000114 0.000030
Al 3.128703 -3.675131 -5.222926 -0.000011 0.000182 -0.000273
Al 3.141910 -3.667352 -0.131205 0.000117 0.000958 -0.000450
Al 1.564027 -0.934645 4.906632 0.000582 0.000259 0.000921
Al 1.546909 -0.947914 -5.205913 -0.000453 0.000201 0.000268
Ga 1.551616 -0.948480 -0.151077 0.000262 -0.000051 -0.000123
Al 3.113082 1.772939 4.911600 0.000275 -0.000131 -0.000228
Al 3.116406 1.782606 -5.215242 -0.000079 -0.000010 0.000186
Al 3.113865 1.779675 -0.155168 -0.000670 -0.000142 0.002261
Al 6.256744 -3.674213 4.905365 0.000144 0.000146 -0.000230
Al 6.270529 -3.683363 -5.211886 0.000020 -0.000063 0.000069
Al 6.270411 -3.681499 -0.141925 0.000022 0.000459 0.000959
Al 4.691091 -0.947054 4.911964 -0.000056 0.000440 -0.000060
Ga 4.690793 -0.944051 -5.218061 -0.000125 0.000077 -0.000622
Al 4.691360 -0.949856 -0.135295 -0.000618 -0.000652 0.000276
Al -3.167877 1.780832 4.904975 0.000099 -0.000186 0.000007
Al -3.167035 1.777239 -5.212189 0.000122 -0.000007 -0.000104
Ga -3.170420 1.764253 -0.133241 -0.000307 -0.000453 -0.000269
Ga -0.017092 -3.674880 4.922346 0.000178 0.000269 0.000038
Al -0.027239 -3.667081 -5.223885 0.000005 0.000099 -0.000591
Al -0.029494 -3.672218 -0.142900 -0.003390 0.001605 0.001940
Ga -1.596843 -0.937807 4.917226 -0.000191 0.000242 -0.000002
Al -1.582947 -0.941978 -5.220506 -0.000095 0.000098 -0.000442
Al -1.590584 -0.949293 -0.133336 0.000065 -0.000533 -0.000319
N 1.546800 0.875739 4.310975 0.000093 -0.000041 -0.000320
N 1.547926 0.865924 -5.808566 0.000287 0.000016 -0.000332
N 1.545361 0.911891 -0.786897 -0.000585 0.001929 0.003572
N -0.024510 3.589321 4.305710 -0.000043 -0.000091 0.000095
N -0.022584 3.587967 -5.822655 -0.000006 -0.000047 -0.000202
N -0.025756 3.588126 -0.753951 -0.000052 -0.000117 0.000100
N 3.127098 -1.854332 4.318413 0.000117 0.000077 0.000027
N 3.078695 -1.877409 -5.840923 0.000159 -0.000142 0.000218
N 3.163194 -1.883635 -0.765159 0.000572 0.000290 -0.001606
N -4.745123 0.869670 4.318981 -0.000120 -0.000025 0.000356
N -4.743064 0.919711 -5.840983 0.000227 -0.000075 0.000152
N -4.785175 0.843822 -0.766676 0.000261 0.000489 0.000390
N -6.354903 3.568813 4.289135 0.000038 0.000004 0.000353
N -6.319868 3.586708 -5.814889 -0.000045 0.000028 0.000221
N -6.311434 3.586821 -0.758107 -0.000611 -0.000098 0.000454
N -3.206033 -1.875919 4.286806 0.000010 -0.000063 -0.000200
N -3.126840 -1.882305 -5.819988 -0.000079 -0.000085 0.000262
N -3.163456 -1.855539 -0.682086 -0.000199 -0.000305 -0.000468
N -1.591195 0.920347 4.296872 0.000593 -0.000242 -0.000281
N -1.598415 0.875402 -5.812182 0.000334 -0.000122 0.000080
N -1.554399 0.842879 -0.776228 -0.000350 0.000092 0.002669
N -3.128127 3.574362 4.292310 -0.000084 -0.000151 -0.000311
N -3.167303 3.588174 -5.800855 0.000053 -0.000187 0.000149
N -3.170213 3.639745 -0.708965 0.002320 -0.001753 -0.000732
N 0.022964 -1.827827 4.289271 -0.001808 -0.001070 -0.004739
N -0.015716 -1.848607 -5.804247 0.000217 -0.000313 0.000259
N -0.065476 -1.883537 -0.769612 0.000123 0.000993 -0.001197
N -0.020431 1.778541 1.771961 -0.000759 -0.000349 0.001365
N -0.022613 1.775359 6.834423 -0.000153 0.000264 -0.000015
N -0.023837 1.776031 -3.293586 -0.000000 0.000270 -0.000610
N 3.130568 -3.664421 1.787922 -0.000090 -0.000847 0.000163
N 3.124614 -3.672793 6.828208 -0.000085 0.000149 0.000104
N 3.171942 -3.647039 -3.311341 -0.000105 0.000037 0.000143
N 1.551897 -0.950594 1.827099 0.002314 0.003911 0.000746
N 1.549055 -0.943167 6.825164 0.000054 0.000409 0.000258
N 1.555327 -0.949792 -3.279790 -0.000222 0.000130 -0.000136
N 3.120443 1.776931 1.778485 -0.000104 -0.000874 -0.001924
N 3.115354 1.778775 6.827423 -0.000045 0.000004 0.000033
N 3.122987 1.776061 -3.295354 -0.000132 -0.000033 0.000211
N 6.267159 -3.673763 1.779552 -0.000072 -0.000285 -0.001009
N 6.268974 -3.668690 6.824188 0.000091 0.000001 -0.000060
N 6.268179 -3.717211 -3.296708 -0.000091 -0.000042 0.000209
N 4.690583 -0.940837 1.786244 -0.000832 0.000109 0.000186
N 4.698719 -0.946391 6.833853 -0.000215 -0.000020 0.000029
N 4.656041 -0.924728 -3.249847 0.002018 0.000547 -0.001512
N -3.173987 1.757646 1.843837 0.001237 0.005966 -0.001975
N -3.166658 1.780860 6.825155 -0.000113 0.000046 -0.000035
N -3.169963 1.725992 -3.294021 -0.000096 0.000065 0.000118
N -0.025478 -3.667806 1.780668 0.000698 -0.000646 0.000191
N -0.020674 -3.667401 6.898616 0.000004 -0.000025 0.000425
N -0.066664 -3.645984 -3.310702 0.000063 -0.000170 0.000245
N -1.591546 -0.940582 1.785828 0.000568 0.000352 0.000425
N -1.592346 -0.943110 6.891340 -0.000236 -0.000017 0.000335
N -1.555006 -0.923566 -3.309809 -0.000332 -0.000112 0.000285
