108
Energy=-665541.687404 Lattice="9.423090 0.000000 0.000000 -4.716793 8.159061 0.000000 -0.011373 -0.002637 15.127422" Stress="-0.000001 -0.000002 -0.000003 -0.000002 -0.000002 -0.000000 -0.000003 -0.000000 -0.000000" Properties=species:S:1:pos:R:3:forces:R:3
Al 1.544968 0.868446 2.376471 0.000388 -0.000001 0.000038
Al 1.536101 0.862728 7.398688 0.000236 -0.000015 0.000138
Al 1.546003 0.870665 -2.661283 0.000109 -0.000024 0.000144
Al -0.027483 3.577322 2.400265 0.000116 0.000036 0.000333
Al -0.029798 3.584915 7.412205 0.000020 -0.000063 -0.000072
Al -0.019945 3.583499 -2.698427 -0.000045 -0.000204 -0.000187
Al 3.123000 -1.847177 2.390965 -0.000144 -0.000028 0.000156
Al 3.116235 -1.854462 7.409205 0.000011 0.000004 -0.000066
Al 3.132254 -1.844902 -2.685996 0.000068 -0.000170 0.000028
Al -4.743330 0.863364 2.363462 0.000338 0.000290 -0.000157
Al -4.743530 0.860401 7.416846 0.000176 0.000091 -0.000031
Al -4.726769 0.864889 -2.663765 0.000180 -0.000166 -0.000022
Al -6.302440 3.580130 2.390857 0.000165 0.000226 -0.000160
Al -6.313568 3.590564 7.398596 -0.000057 0.000030 -0.000151
Al -6.303207 3.587012 -2.671187 -0.000369 0.000115 -0.000134
Al -3.164367 -1.844736 2.391413 0.000062 0.000236 0.000122
Al -3.167519 -1.853864 7.408108 0.000082 0.000018 0.000053
Al -3.166963 -1.845958 -2.684136 0.000155 0.000025 -0.000073
Al -1.593190 0.865861 2.365960 0.000096 0.000128 0.000141
Al -1.595565 0.865334 7.423353 0.000336 -0.000194 0.000018
Al -1.597060 0.877820 -2.675303 0.000282 -0.000321 0.000403
Al -3.172127 3.587095 2.380916 -0.000313 0.000154 0.000308
Al -3.171178 3.593821 7.422741 0.000001 -0.000176 -0.000372
Al -3.164837 3.580197 -2.680727 0.000131 -0.000426 -0.001752
Al -0.023136 -1.852906 2.373231 0.000163 -0.000489 -0.000224
Al -0.025583 -1.851458 7.411940 0.000089 -0.000186 -0.000078
Ga -0.018571 -1.850590 -2.669040 0.000339 0.000140 0.000381
Al -0.021564 1.770252 4.898125 -0.000187 0.000179 0.000033
Al -0.026533 1.771357 -5.198560 -0.000062 0.000057 0.000092
Al -0.025044 1.761471 -0.148946 -0.000108 -0.000635 0.000325
Al 3.121152 -3.659888 4.900039 -0.000106 -0.000065 -0.000298
Al 3.125241 -3.663283 -5.197616 -0.000086 0.000215 -0.000339
Ga 3.116003 -3.664550 -0.147957 -0.000170 -0.000012 0.000677
Al 1.545849 -0.948718 4.890798 -0.000351 0.000192 -0.000015
Al 1.554442 -0.949441 -5.207516 -0.000215 0.000248 0.000132
Al 1.553566 -0.936555 -0.133324 -0.000447 -0.000070 0.000004
Al 3.104544 1.770830 4.897669 0.000144 -0.000094 -0.000207
Ga 3.117464 1.775084 -5.191197 -0.000015 -0.000148 0.000287
Al 3.118346 1.768645 -0.153139 0.000105 -0.000425 -0.000142
Al 6.257137 -3.666274 4.893203 0.000096 -0.000017 -0.000196
Al 6.264635 -3.655402 -5.200021 0.000073 -0.000064 -0.000142
Ga 6.269693 -3.663685 -0.137511 0.000112 0.000087 -0.000455
Al 4.682420 -0.952300 4.899021 -0.000025 0.000049 -0.000014
Al 4.699888 -0.952589 -5.198736 -0.000228 -0.000003 0.000202
Al 4.691043 -0.934159 -0.148221 -0.000064 0.000075 0.000112
Ga -3.170789 1.772507 4.898581 0.000032 0.000163 -0.000055
Al -3.153668 1.775832 -5.196647 -0.000005 0.000023 -0.000385
Al -3.170455 1.771168 -0.148062 0.000204 -0.001942 -0.000010
Al -0.027671 -3.656396 4.898129 0.000314 -0.000121 -0.000324
Al -0.013201 -3.658889 -5.207634 0.000152 -0.000006 -0.000427
Al -0.018459 -3.674711 -0.138917 -0.000657 0.001165 0.002057
Al -1.589587 -0.951775 4.896482 -0.000191 0.000134 0.000044
Al -1.590166 -0.941437 -5.206788 -0.000190 0.000076 0.000110
Al -1.597407 -0.934450 -0.135819 0.001084 -0.000328 -0.001261
N 1.541652 0.866627 4.296532 0.000240 -0.000099 -0.000060
N 1.508316 0.845450 -5.821022 0.000377 0.000210 -0.000172
N 1.542380 0.864833 -0.742464 0.000311 -0.000018 0.000013
N -0.030519 3.581491 4.311957 0.000244 -0.000097 0.000128
N -0.019216 3.587820 -5.791749 -0.000079 -0.000124 0.000149
N -0.022446 3.538404 -0.792244 0.000090 0.000785 0.000272
N 3.118367 -1.851581 4.304227 -0.000004 0.000116 0.000215
N 3.127191 -1.852227 -5.799519 0.000080 -0.000071 -0.000038
N 3.120189 -1.803813 -0.770606 0.000185 0.000011 0.000127
N -4.783447 0.841175 4.275151 0.000287 0.000235 0.000017
N -4.693249 0.843626 -5.805158 -0.000033 0.000161 0.000070
N -4.734162 0.866238 -0.744081 0.000386 0.000202 0.000094
N -6.307195 3.583126 4.307255 -0.000236 0.000099 0.000210
N -6.304575 3.635387 -5.820159 -0.000195 -0.000169 0.000052
N -6.265844 3.567290 -0.762567 -0.000144 0.000140 0.000056
N -3.165638 -1.848353 4.306249 0.000037 -0.000014 0.000071
N -3.157935 -1.851547 -5.801893 0.000032 0.000049 -0.000016
N -3.162285 -1.804620 -0.768846 0.000013 -0.000151 -0.000145
N -1.558342 0.843599 4.275894 0.000293 -0.000155 0.000023
N -1.589485 0.870506 -5.793102 0.000288 -0.000134 0.000023
N -1.597084 0.870203 -0.748362 0.000186 -0.000276 -0.000396
N -3.171757 3.635351 4.286354 -0.000267 -0.000542 0.000318
N -3.160271 3.591684 -5.792303 0.000032 -0.000199 0.000512
N -3.208543 3.560186 -0.770040 0.000509 0.001361 0.000117
N -0.025957 -1.851969 4.292658 0.000199 -0.000080 0.000131
N -0.017034 -1.848564 -5.796482 0.000057 -0.000217 -0.000041
N -0.018829 -1.852836 -0.686057 -0.000722 0.000122 -0.000605
N -0.023481 1.774617 1.772471 -0.000037 0.000473 -0.000097
N -0.032090 1.772355 6.812326 -0.000168 0.000305 -0.000027
N -0.019526 1.767933 -3.280088 -0.000198 0.000297 -0.000253
N 3.123431 -3.666058 1.835684 0.000051 0.000115 -0.001743
N 3.116388 -3.668319 6.817719 0.000089 0.000302 0.000191
N 3.121681 -3.662964 -3.276319 0.000116 0.000221 0.000281
N 1.554017 -0.946439 1.785537 -0.000017 0.000244 0.000492
N 1.545624 -0.951140 6.808144 -0.000222 0.000121 0.000042
N 1.593900 -0.918715 -3.295593 -0.000553 -0.000024 -0.000327
N 3.113169 1.774952 1.770164 -0.000482 0.000210 -0.000030
N 3.112179 1.771300 6.815477 -0.000031 -0.000045 0.000005
N 3.118934 1.772712 -3.215013 0.000022 -0.000111 -0.000048
N 6.259747 -3.664640 1.841680 0.000209 -0.000671 0.000475
N 6.253698 -3.665640 6.808839 0.000030 0.000041 0.000154
N 6.269762 -3.661881 -3.277605 -0.000057 0.000062 -0.000158
N 4.691192 -0.950239 1.773014 -0.000422 -0.000302 -0.000243
N 4.685863 -0.947295 6.812660 -0.000190 -0.000158 -0.000008
N 4.695010 -0.941597 -3.282019 -0.000198 -0.000093 -0.000056
N -3.167209 1.774497 1.775119 -0.000052 0.000086 0.000686
N -3.169919 1.774292 6.869909 -0.000147 0.000052 0.000035
N -3.163595 1.773622 -3.277280 -0.000073 0.000055 0.000365
N -0.022880 -3.670028 1.782691 -0.000203 -0.000019 -0.000850
N -0.022735 -3.663657 6.812885 -0.000001 0.000092 0.000256
N -0.017600 -3.709006 -3.300995 -0.000144 0.000067 0.000668
N -1.596412 -0.946939 1.778056 -0.000556 -0.000117 0.000523
N -1.595179 -0.944980 6.816089 -0.000331 -0.000019 -0.000001
N -1.626885 -0.918471 -3.294620 -0.000430 -0.000094 -0.000043
