108
Energy=-9.401945e+05 Lattice="9.454785e+00 0.000000e+00 0.000000e+00 -4.729088e+00 8.185988e+00 0.000000e+00 -1.351974e-03 2.233972e-05 1.521855e+01" Stress="1.827081e-04 -5.811311e-05 3.083327e-05 -6.579617e-05 -3.367910e-04 8.518748e-05 2.926109e-05 7.663017e-05 7.389457e-04" Properties=species:S:1:pos:R:3:forces:R:3 Config_type=AlGaN_super3_11_1_64.xyz
Al 1.550416e+00 8.739242e-01 2.397068e+00 1.980806e-05 3.132658e-05 -1.062974e-05
Al 1.550436e+00 8.764784e-01 7.445975e+00 -1.077605e-06 1.715542e-05 1.838840e-05
Al 1.543013e+00 8.676500e-01 -2.684283e+00 -1.965311e-05 -6.665879e-07 -6.293271e-06
Al -1.124445e-02 3.594829e+00 2.376526e+00 1.232405e-05 2.464667e-07 -2.030357e-05
Al -1.012085e-02 3.587717e+00 7.446188e+00 -1.264322e-05 3.127042e-06 -4.729263e-05
Al -2.401949e-02 3.583011e+00 -2.658286e+00 1.378957e-05 -7.016784e-06 5.562181e-07
Al 3.140457e+00 -1.844923e+00 2.373222e+00 -3.563882e-06 8.685394e-06 1.279884e-05
Al 3.142701e+00 -1.836537e+00 7.462535e+00 5.408285e-06 -6.486205e-06 1.073172e-05
Al 3.124750e+00 -1.847287e+00 -2.672775e+00 -1.297732e-05 2.064562e-05 -1.758581e-06
Al -4.748414e+00 8.607878e-01 2.400190e+00 -6.303857e-06 5.028420e-06 -4.626004e-06
Al -4.751303e+00 8.586219e-01 7.442095e+00 1.503380e-07 7.439533e-06 -3.746649e-06
Al -4.745515e+00 8.688707e-01 -2.682473e+00 -1.799162e-05 1.632689e-05 -1.149317e-05
Al -6.348043e+00 3.593019e+00 2.412736e+00 -7.893955e-06 -4.805607e-08 -2.405651e-07
Al -6.337393e+00 3.592438e+00 7.438311e+00 3.428508e-06 -1.848855e-05 -3.097325e-05
Al -6.325007e+00 3.594411e+00 -2.677794e+00 -1.725807e-05 1.257143e-05 1.892959e-07
Al -3.181913e+00 -1.858401e+00 2.382157e+00 3.029937e-06 9.436945e-06 -1.312517e-05
Al -3.186676e+00 -1.852691e+00 7.444622e+00 -6.363329e-06 -9.317145e-06 -4.079839e-06
Ga -3.176665e+00 -1.851321e+00 -2.667804e+00 1.270146e-05 -4.565065e-06 -1.091482e-05
Al -1.598511e+00 8.715843e-01 2.384825e+00 1.965620e-05 -1.214395e-05 -1.769275e-06
Al -1.598538e+00 8.720952e-01 7.459130e+00 -1.150482e-05 1.681954e-05 -7.082021e-06
Al -1.592350e+00 8.779305e-01 -2.684914e+00 -2.087758e-07 -6.679630e-06 3.650457e-06
Ga -3.164692e+00 3.583897e+00 2.389685e+00 2.623850e-06 1.052863e-07 -6.588062e-06
Ga -3.182403e+00 3.583957e+00 7.470396e+00 1.628992e-05 -5.991749e-06 -1.321972e-05
Al -3.174359e+00 3.589680e+00 -2.684648e+00 -2.411339e-05 -1.528589e-05 2.814988e-05
Ga -2.358080e-02 -1.838288e+00 2.404515e+00 -6.100723e-06 6.020440e-07 -1.188993e-05
Ga -2.615053e-02 -1.850647e+00 7.462141e+00 6.411496e-06 -8.516608e-06 -5.853453e-07
Al -1.468871e-02 -1.848868e+00 -2.696764e+00 -7.447182e-06 4.256169e-06 2.222135e-06
Al -2.245845e-02 1.770349e+00 4.913907e+00 -2.469419e-06 -8.476567e-06 5.523064e-06
Al -3.178835e-02 1.765071e+00 -5.220699e+00 -9.406286e-06 -1.179690e-05 3.200629e-06
Al -3.265408e-02 1.775817e+00 -1.453467e-01 -3.956797e-05 1.578894e-05 3.678655e-06
Ga 3.139802e+00 -3.668119e+00 4.929000e+00 -9.024371e-06 2.201328e-06 -8.477245e-06
Ga 3.132701e+00 -3.671480e+00 -5.205858e+00 -5.912320e-06 1.201611e-05 -2.083795e-05
Al 3.142379e+00 -3.674083e+00 -1.618899e-01 -8.045892e-06 -5.286355e-06 3.919612e-06
Al 1.559838e+00 -9.355804e-01 4.926046e+00 1.809191e-08 1.908879e-06 1.177822e-05
Al 1.552712e+00 -9.437210e-01 -5.212299e+00 -9.858628e-07 -3.141948e-05 -1.750682e-06
Al 1.554922e+00 -9.435075e-01 -1.593307e-01 -2.375587e-05 1.965456e-05 2.198025e-06
Al 3.127002e+00 1.777009e+00 4.918138e+00 1.602675e-06 1.839766e-06 -1.559368e-05
Ga 3.134680e+00 1.769746e+00 -5.223200e+00 1.004988e-05 -3.442261e-06 -1.363790e-05
Ga 3.124579e+00 1.769541e+00 -1.402517e-01 -8.092194e-06 -6.262164e-07 6.143540e-07
Al 6.286349e+00 -3.674649e+00 4.919767e+00 4.215396e-06 1.147393e-06 -3.544319e-06
Ga 6.284819e+00 -3.673205e+00 -5.230055e+00 8.112974e-06 9.857161e-06 -1.040922e-05
Al 6.270173e+00 -3.676871e+00 -1.310023e-01 -1.695265e-05 2.901362e-05 9.668280e-06
Al 4.707936e+00 -9.436480e-01 4.913644e+00 7.602837e-06 5.572724e-06 -3.550917e-06
Al 4.707247e+00 -9.378318e-01 -5.230903e+00 -4.910626e-06 4.517573e-06 -6.990736e-06
Al 4.704791e+00 -9.501668e-01 -1.309027e-01 -9.552343e-07 1.326514e-05 6.208978e-06
Al -3.174727e+00 1.758616e+00 4.925470e+00 8.343309e-08 2.285207e-05 1.295885e-05
Al -3.168817e+00 1.760991e+00 -5.212522e+00 1.498124e-06 8.972048e-06 -1.353652e-05
Al -3.160562e+00 1.763629e+00 -1.576620e-01 -4.703353e-06 -3.264222e-05 1.054754e-05
Al -3.872019e-02 -3.680189e+00 4.921606e+00 1.097192e-05 -1.256205e-05 1.972238e-06
Al -2.476755e-02 -3.673590e+00 -5.194588e+00 1.003784e-05 4.813283e-05 -1.407829e-05
Ga -2.191187e-02 -3.668651e+00 -1.595506e-01 1.984409e-06 7.651377e-06 -1.562456e-05
Al -1.609861e+00 -9.397324e-01 4.923212e+00 -9.712512e-07 -9.526931e-07 -1.463169e-05
Al -1.597299e+00 -9.347090e-01 -5.225668e+00 -9.462737e-06 -1.878079e-05 -1.524657e-05
Al -1.599289e+00 -9.335953e-01 -1.456979e-01 -3.173097e-05 1.198159e-05 -2.730044e-05
N 1.549436e+00 8.701379e-01 4.316389e+00 2.779342e-06 -8.912265e-06 1.336760e-05
N 1.509756e+00 8.471115e-01 -5.850556e+00 2.535788e-05 -1.968452e-06 -3.259060e-05
N 1.506821e+00 8.501926e-01 -7.724733e-01 4.653257e-05 -3.693912e-05 -1.876373e-05
N 1.899514e-02 3.573396e+00 4.293981e+00 6.089158e-07 1.514389e-05 8.613161e-07
N -2.261502e-02 3.546181e+00 -5.866194e+00 4.757873e-06 8.889648e-06 2.889234e-05
N -1.868376e-02 3.592167e+00 -7.397389e-01 -6.318267e-06 2.834109e-06 7.649933e-06
N 3.128199e+00 -1.807820e+00 4.286258e+00 -7.931593e-06 -2.891706e-06 -1.805119e-05
N 3.129354e+00 -1.805724e+00 -5.841979e+00 -2.254297e-06 1.171270e-05 1.050356e-05
N 3.132535e+00 -1.850364e+00 -7.515879e-01 -1.396813e-05 8.674200e-07 6.137176e-06
N -4.749088e+00 8.693924e-01 4.319093e+00 6.919090e-06 -8.090121e-06 1.475043e-05
N -4.706257e+00 8.485034e-01 -5.858858e+00 1.370598e-05 -3.055474e-06 7.192248e-06
N -4.708354e+00 8.417785e-01 -7.699790e-01 1.121573e-05 7.515033e-06 2.274920e-05
N -6.334293e+00 3.597385e+00 4.325539e+00 2.240846e-06 -4.882346e-06 1.905894e-05
N -6.281299e+00 3.620830e+00 -5.870161e+00 1.169904e-05 -2.995191e-06 2.673765e-05
N -6.371999e+00 3.620611e+00 -7.802239e-01 1.874631e-05 -1.151339e-05 -7.943809e-06
N -3.175294e+00 -1.858794e+00 4.309598e+00 5.064599e-06 -1.376496e-05 1.251395e-05
N -3.174054e+00 -1.808536e+00 -5.852198e+00 2.724357e-05 8.793576e-06 8.043232e-06
N -3.175178e+00 -1.856859e+00 -6.888692e-01 1.500121e-05 -1.491922e-05 8.459938e-06
N -1.598080e+00 8.714605e-01 4.304468e+00 1.208398e-05 -6.002921e-06 1.429695e-05
N -1.597638e+00 8.731386e-01 -5.835097e+00 1.464829e-07 -8.274973e-06 1.368779e-05
N -1.594447e+00 8.707507e-01 -7.648794e-01 -1.074224e-05 -1.429858e-06 8.318981e-06
N -3.211088e+00 3.571378e+00 4.360468e+00 3.075300e-06 -1.940226e-05 1.202112e-06
N -3.217816e+00 3.572117e+00 -5.772423e+00 6.302610e-06 -3.555660e-05 1.650437e-05
N -3.133384e+00 3.570211e+00 -7.666558e-01 4.138216e-06 2.915855e-05 -3.955769e-05
N -2.209609e-02 -1.849986e+00 4.381824e+00 -7.854183e-06 1.691312e-06 4.742808e-06
N -2.045625e-02 -1.859621e+00 -5.769944e+00 -1.074788e-05 -2.568135e-05 2.216222e-05
N -2.407709e-02 -1.804195e+00 -7.784542e-01 2.703437e-05 -1.389672e-05 -6.573205e-06
N -2.337465e-02 1.775700e+00 1.778928e+00 -7.509547e-06 9.154228e-06 1.240590e-05
N -2.728897e-02 1.775098e+00 6.836045e+00 -2.104020e-07 -1.157558e-06 9.402524e-06
N -2.392803e-02 1.781961e+00 -3.296081e+00 -9.664908e-06 3.036219e-06 1.477158e-05
N 3.173496e+00 -3.652227e+00 1.761046e+00 -1.458247e-05 3.490486e-06 -1.115317e-05
N 3.170241e+00 -3.649170e+00 6.901443e+00 1.865535e-05 -1.113481e-05 2.087939e-06
N 3.137590e+00 -3.673916e+00 -3.222530e+00 9.209866e-06 1.342598e-05 -4.130431e-06
N 1.593250e+00 -9.208800e-01 1.756614e+00 7.802837e-06 -8.677782e-06 -2.140834e-07
N 1.596841e+00 -9.243442e-01 6.836141e+00 9.672970e-07 -9.215084e-06 -1.290125e-05
N 1.560041e+00 -9.459151e-01 -3.292512e+00 -7.019444e-06 5.135609e-06 2.200859e-05
N 3.129919e+00 1.778598e+00 1.843644e+00 -3.225396e-05 -1.313235e-05 4.012843e-06
N 3.127233e+00 1.775737e+00 6.846822e+00 -5.497950e-06 -3.201940e-06 1.114787e-05
N 3.128942e+00 1.775990e+00 -3.238784e+00 1.645781e-05 -2.603643e-06 -2.220576e-06
N 6.284173e+00 -3.679025e+00 1.787678e+00 -5.779140e-06 6.192536e-06 1.356903e-05
N 6.278657e+00 -3.674078e+00 6.844873e+00 4.402448e-07 4.056552e-06 6.772673e-06
N 6.276609e+00 -3.723478e+00 -3.259611e+00 4.129362e-06 1.866908e-06 8.502661e-06
N 4.705805e+00 -9.439476e-01 1.784879e+00 -5.928596e-06 9.616152e-06 8.143660e-06
N 4.703074e+00 -9.502771e-01 6.833543e+00 1.057657e-05 6.454090e-06 6.976112e-06
N 4.664075e+00 -9.261457e-01 -3.315171e+00 1.045088e-05 -2.374353e-05 -6.407110e-06
N -3.175626e+00 1.726360e+00 1.757028e+00 -1.963949e-05 1.275269e-05 -3.121076e-06
N -3.172350e+00 1.726707e+00 6.833875e+00 2.222619e-05 -3.047093e-05 -1.886912e-05
N -3.172791e+00 1.771988e+00 -3.291053e+00 -5.371628e-06 5.590488e-06 1.225209e-05
N -6.567057e-02 -3.698320e+00 1.806083e+00 -4.119248e-06 4.685711e-06 7.658472e-06
N -6.319320e-02 -3.699221e+00 6.819026e+00 -2.678322e-06 5.184515e-06 7.130869e-06
N -2.395650e-02 -3.678399e+00 -3.272880e+00 -1.208272e-05 4.346029e-07 9.623430e-06
N -1.637125e+00 -9.226799e-01 1.768271e+00 -1.655111e-05 -9.203342e-06 9.332326e-06
N -1.642946e+00 -9.213921e-01 6.836924e+00 6.418834e-06 8.076427e-06 1.628273e-06
N -1.563150e+00 -9.210137e-01 -3.310117e+00 1.696502e-05 -1.995667e-06 -9.895644e-06
