108
Energy=-985969.908617 Lattice="9.462577 0.000000 0.000000 -4.731806 8.193143 0.000000 0.001387 0.001524 15.223575" Stress="0.000002 -0.000000 0.000000 -0.000000 0.000000 0.000001 0.000000 0.000001 0.000000" Properties=species:S:1:pos:R:3:forces:R:3
Al 1.546729 0.867442 2.375985 0.000002 0.000047 -0.000049
Al 1.552382 0.874989 7.468620 -0.000177 -0.000162 0.000028
Al 1.550850 0.865863 -2.691372 0.000111 0.000012 0.000046
Al -0.030899 3.594994 2.409787 -0.000086 -0.000106 0.000013
Al -0.033039 3.591049 7.437030 0.000138 0.000112 -0.000070
Al -0.041480 3.588024 -2.683495 -0.000023 -0.000108 0.000171
Al 3.128962 -1.860087 2.386711 0.000004 -0.000010 0.000021
Al 3.125624 -1.859279 7.441243 -0.000009 -0.000084 0.000276
Al 3.121719 -1.859265 -2.670319 -0.000094 0.000110 0.000133
Al -4.748144 0.869342 2.384824 0.000035 0.000019 0.000017
Al -4.752084 0.881672 7.451041 0.000098 -0.000019 0.000128
Al -4.759332 0.871570 -2.672329 0.000014 0.000242 0.000054
Al -6.335567 3.594383 2.395139 -0.000024 0.000016 0.000009
Al -6.334301 3.586897 7.469592 0.000146 0.000273 -0.000110
Ga -6.326801 3.582668 -2.684569 0.000064 -0.000028 0.000017
Al -3.185810 -1.856609 2.413715 -0.000069 -0.000074 -0.000037
Ga -3.181023 -1.852872 7.439588 0.000057 -0.000069 0.000032
Ga -3.178452 -1.844556 -2.676596 0.000068 0.000013 -0.000026
Al -1.597996 0.883602 2.401760 -0.000041 -0.000081 0.000026
Al -1.597676 0.887580 7.453665 -0.000026 0.000193 0.000154
Al -1.591125 0.880371 -2.693950 0.000047 -0.000254 -0.000018
Al -3.163384 3.593358 2.392613 0.000121 -0.000076 0.000059
Al -3.163170 3.591500 7.467467 -0.000065 0.000116 0.000005
Ga -3.160939 3.598638 -2.694050 0.000002 -0.000039 0.000088
Al -0.011668 -1.849484 2.411360 0.000046 -0.000200 -0.000004
Ga -0.011835 -1.845066 7.466924 -0.000035 -0.000062 0.000066
Al -0.008071 -1.843355 -2.706515 0.000070 0.000036 0.000020
Al -0.030233 1.777643 4.924623 -0.000053 0.000061 -0.000026
Al -0.028201 1.774266 -5.235271 -0.000052 0.000038 0.000121
Al -0.025313 1.782893 -0.147947 -0.000015 -0.000133 0.000059
Al 3.138166 -3.679817 4.918975 -0.000045 -0.000012 0.000055
Al 3.125185 -3.683497 -5.243543 -0.000011 -0.000114 0.000132
Al 3.138269 -3.678446 -0.127771 0.000178 -0.000056 -0.000020
Al 1.561113 -0.942451 4.915455 -0.000105 -0.000021 -0.000142
Al 1.555963 -0.946117 -5.215425 -0.000083 -0.000005 0.000096
Al 1.566307 -0.942066 -0.150270 0.000003 -0.000042 0.000049
Ga 3.123295 1.768545 4.926376 0.000024 0.000040 0.000007
Al 3.132863 1.771581 -5.240218 -0.000081 -0.000013 0.000161
Al 3.131029 1.756236 -0.128692 -0.000041 -0.000050 -0.000041
Al 6.272140 -3.680800 4.915383 -0.000037 0.000077 -0.000030
Ga 6.280325 -3.699150 -5.231067 -0.000036 0.000055 -0.000013
Ga 6.262460 -3.692855 -0.116954 -0.000006 0.000029 -0.000040
Al 4.704137 -0.952198 4.911677 0.000033 0.000046 0.000138
Ga 4.687767 -0.935629 -5.222014 0.000003 0.000021 -0.000009
Al 4.687844 -0.937655 -0.130322 -0.000082 0.000021 0.000014
Al -3.161548 1.775281 4.925213 0.000013 0.000057 0.000074
Al -3.173011 1.779712 -5.240483 -0.000058 -0.000013 -0.000096
Al -3.174600 1.774178 -0.136238 -0.000214 0.000138 0.000060
Ga -0.013682 -3.679982 4.921565 0.000064 -0.000038 0.000106
Al -0.012371 -3.682796 -5.241277 0.000082 0.000028 -0.000045
Ga -0.004398 -3.677351 -0.115411 -0.000020 -0.000053 -0.000013
Al -1.601588 -0.932463 4.898854 -0.000222 0.000142 0.000222
Al -1.581749 -0.928376 -5.214573 -0.000054 -0.000033 -0.000096
Ga -1.589141 -0.928077 -0.122513 -0.000026 -0.000049 -0.000038
N 1.508383 0.849205 4.287773 0.000018 -0.000005 0.000178
N 1.549169 0.867118 -5.830416 0.000021 -0.000023 -0.000105
N 1.552945 0.873791 -0.755725 0.000034 -0.000073 -0.000092
N -0.028701 3.595850 4.328073 0.000004 0.000005 -0.000045
N -0.069526 3.572925 -5.870688 0.000019 -0.000056 -0.000098
N -0.070910 3.575976 -0.768616 -0.000140 0.000251 0.000003
N 3.129072 -1.861272 4.309028 0.000004 0.000007 0.000060
N 3.084617 -1.883495 -5.864740 0.000113 0.000290 -0.000416
N 3.129845 -1.864594 -0.742360 -0.000005 0.000009 -0.000054
N -4.709881 0.851525 4.299308 0.000038 -0.000078 -0.000029
N -4.750943 0.917387 -5.864084 0.000297 0.000104 -0.000008
N -4.753761 0.875001 -0.743329 0.000028 -0.000009 0.000001
N -6.371899 3.619289 4.292698 0.000039 -0.000104 -0.000006
N -6.292492 3.575867 -5.843540 -0.000044 -0.000056 -0.000006
N -6.327072 3.552049 -0.714773 -0.000011 0.000048 -0.000082
N -3.182084 -1.859032 4.332700 -0.000043 0.000010 -0.000007
N -3.136052 -1.831661 -5.812449 0.000049 0.000014 -0.000019
N -3.215118 -1.832416 -0.711210 0.000003 -0.000014 0.000012
N -1.598367 0.882798 4.314093 0.000051 -0.000061 -0.000039
N -1.598729 0.872671 -5.845005 0.000061 -0.000055 -0.000049
N -1.600452 0.921409 -0.775231 0.000319 -0.000018 -0.000221
N -3.128665 3.573411 4.303672 0.000044 -0.000057 -0.000087
N -3.171566 3.597052 -5.832399 0.000030 -0.000116 -0.000074
N -3.131598 3.578071 -0.715211 -0.000118 -0.000092 -0.000095
N -0.015574 -1.810472 4.315495 0.000240 0.000016 0.000058
N -0.019443 -1.852001 -5.778713 -0.000130 -0.000016 -0.000016
N 0.018985 -1.835465 -0.790483 0.000003 0.000015 -0.000042
N -0.025448 1.784087 1.776613 -0.000067 -0.000001 0.000001
N -0.019630 1.776205 6.847130 0.000018 0.000065 -0.000074
N -0.020396 1.781700 -3.304869 -0.000039 -0.000054 -0.000054
N 3.137907 -3.680046 1.791585 -0.000007 0.000074 -0.000012
N 3.128742 -3.678995 6.842071 -0.000010 0.000061 -0.000034
N 3.176571 -3.650490 -3.323453 -0.000100 -0.000126 -0.000146
N 1.555136 -0.951281 1.772402 -0.000033 -0.000008 -0.000058
N 1.596319 -0.917983 6.826551 0.000036 0.000156 0.000149
N 1.565168 -0.946425 -3.292608 -0.000048 0.000054 -0.000016
N 3.131425 1.773054 1.790684 0.000020 -0.000010 -0.000005
N 3.126791 1.777774 6.902287 0.000019 0.000180 -0.000011
N 3.132660 1.725371 -3.319654 -0.000108 0.000009 -0.000032
N 6.276583 -3.682185 1.856344 0.000175 0.000156 0.000114
N 6.287063 -3.729980 6.834210 -0.000210 -0.000262 0.000267
N 6.242125 -3.708030 -3.266527 0.000097 0.000035 -0.000019
N 4.704647 -0.949589 1.791551 -0.000047 -0.000007 -0.000041
N 4.662653 -0.920614 6.827832 -0.000013 -0.000164 -0.000340
N 4.658158 -0.923189 -3.251052 0.000078 -0.000058 -0.000079
N -3.173972 1.776608 1.781123 -0.000022 0.000033 0.000039
N -3.173599 1.783694 6.849022 -0.000022 0.000071 -0.000048
N -3.180053 1.728605 -3.319421 -0.000173 -0.000094 0.000125
N -0.017603 -3.676785 1.861024 -0.000086 0.000152 -0.000018
N -0.019057 -3.726589 6.896875 0.000077 -0.000192 0.000048
N -0.019260 -3.637723 -3.329841 -0.000062 -0.000047 0.000016
N -1.597558 -0.946766 1.857461 0.000032 0.000189 0.000014
N -1.594835 -0.893952 6.806168 0.000028 -0.000288 -0.000384
N -1.557262 -0.918493 -3.302844 0.000007 0.000202 0.000141
