108
Energy=-1672602.236301 Lattice="9.547846 0.000000 0.000000 -4.781877 8.265927 0.000000 -0.002695 0.006115 15.419619" Stress="0.000000 -0.000003 -0.000001 -0.000003 -0.000000 0.000001 -0.000001 0.000001 -0.000004" Properties=species:S:1:pos:R:3:forces:R:3
Al 1.578532 0.888244 2.390655 -0.001369 0.001780 -0.000139
Al 1.570965 0.906400 7.575992 -0.000441 -0.001134 0.000340
Al 1.558641 0.886461 -2.713406 0.000113 0.000270 0.000492
Al -0.015096 3.616820 2.408847 -0.000048 0.000162 0.000446
Al -0.011498 3.612438 7.564233 -0.000307 0.000102 0.000907
Al -0.028002 3.610825 -2.712998 0.000067 0.000087 0.000642
Al 3.170004 -1.856744 2.401221 0.000112 -0.000886 -0.000555
Ga 3.172870 -1.857535 7.575002 -0.000035 -0.000437 0.000946
Ga 3.168705 -1.872368 -2.712014 0.000156 -0.000148 0.000650
Al -4.809931 0.878978 2.392651 -0.000224 -0.000324 0.000342
Al -4.815642 0.883601 7.558929 0.000368 0.000085 0.001168
Ga -4.801264 0.875700 -2.701174 0.000338 -0.000253 0.001017
Al -6.397053 3.614887 2.389263 0.000052 0.000068 0.000272
Al -6.404417 3.614079 7.576959 0.000065 0.000005 0.000526
Ga -6.399177 3.616593 -2.701117 -0.000004 0.000155 0.000200
Ga -3.233654 -1.878952 2.423090 0.000363 -0.000206 -0.000009
Ga -3.221782 -1.875941 7.560644 0.000162 -0.000083 0.000060
Al -3.217134 -1.872774 -2.709725 0.000164 0.000052 0.000622
Ga -1.609921 0.908267 2.413353 0.000518 -0.000011 0.000365
Ga -1.608710 0.906343 7.558338 0.000756 -0.000286 0.000558
Al -1.603642 0.900237 -2.704273 0.000471 -0.000368 0.000454
Ga -3.216488 3.626803 2.409589 0.000681 -0.000191 0.000248
Ga -3.216433 3.624324 7.548051 0.000628 -0.000101 0.000368
Al -3.199569 3.622617 -2.684969 0.000157 -0.000109 0.000474
Ga -0.005396 -1.876888 2.391470 -0.000004 -0.000181 -0.000004
Ga -0.016453 -1.867505 7.584824 0.000473 -0.000165 0.000275
Ga -0.009635 -1.867471 -2.696535 0.000178 -0.000004 0.000014
Al -0.020443 1.802731 4.982792 -0.000142 0.000079 0.000592
Al -0.002808 1.787520 -5.269784 0.000398 -0.000057 0.000784
Al -0.013487 1.792704 -0.166318 -0.000395 -0.000537 0.000215
Ga 3.181613 -3.717630 4.970859 -0.000267 0.000466 -0.000058
Ga 3.176871 -3.721775 -5.266317 -0.000394 0.000448 0.000362
Ga 3.162010 -3.719485 -0.147129 -0.000227 0.000438 0.000232
Ga 1.586108 -0.937993 4.975155 -0.000845 0.000426 0.001145
Al 1.583595 -0.930318 -5.277403 -0.000581 0.000388 0.000298
Al 1.582739 -0.938056 -0.141372 -0.000009 0.000128 -0.000429
Ga 3.159247 1.788031 4.973907 0.000074 -0.000091 0.001325
Al 3.143808 1.772234 -5.298823 0.000463 0.000351 -0.001797
Al 3.154986 1.782097 -0.131686 0.000183 -0.000374 0.000598
Ga 6.337714 -3.728792 4.989002 0.000192 -0.000046 0.000468
Ga 6.337807 -3.729611 -5.278579 0.000385 0.000180 0.000362
Ga 6.341085 -3.722579 -0.148588 0.000106 0.000329 -0.000045
Al 4.747111 -0.935947 4.973692 -0.000070 0.000144 0.000579
Al 4.744618 -0.945646 -5.278854 -0.000038 0.000093 0.000695
Al 4.741802 -0.942635 -0.137305 0.000149 -0.000007 -0.000281
Al -3.219441 1.782668 4.983227 -0.000274 -0.000078 0.000661
Ga -3.215657 1.784959 -5.267996 -0.000373 -0.000195 0.000776
Al -3.216854 1.796065 -0.163556 0.000513 0.000251 -0.000035
Ga -0.030549 -3.722286 4.990282 -0.000177 0.000132 0.000530
Ga -0.019873 -3.723019 -5.272269 -0.000320 0.000003 0.000331
Al -0.013538 -3.728975 -0.150092 0.000139 0.000204 0.000146
Ga -1.619059 -0.937093 4.989115 -0.000455 0.000231 -0.000031
Ga -1.612234 -0.947076 -5.251661 -0.000505 -0.000087 0.000029
Ga -1.616174 -0.941846 -0.168106 -0.000520 0.000311 0.000150
N 1.522258 0.909317 4.310140 0.000561 -0.000145 -0.000328
N 1.560245 0.880953 -5.910930 0.000388 -0.000271 -0.000716
N 1.569995 0.881117 -0.774677 0.000562 -0.000114 -0.000840
N -0.022942 3.580417 4.322219 -0.000113 -0.000320 -0.000682
N -0.025773 3.572683 -5.933159 -0.000173 -0.000070 -0.000718
N -0.026559 3.582323 -0.804782 -0.000031 0.000022 -0.000286
N 3.204943 -1.846922 4.321909 -0.000016 -0.000273 0.000181
N 3.164631 -1.833907 -5.854793 -0.000075 0.000096 -0.000493
N 3.161673 -1.827142 -0.731739 0.000042 0.000162 -0.000411
N -4.762452 0.858909 4.324755 0.000656 0.000182 -0.000721
N -4.837427 0.851614 -5.926246 -0.000309 0.000118 -0.000228
N -4.805890 0.878131 -0.714995 -0.000749 0.000001 -0.000461
N -6.394168 3.629581 4.302725 0.000012 -0.000073 -0.000854
N -6.392900 3.580715 -5.924658 -0.000051 -0.000551 0.000208
N -6.354213 3.598583 -0.724507 0.000151 -0.000122 -0.000114
N -3.249408 -1.854904 4.396763 -0.000315 -0.000065 -0.000014
N -3.245331 -1.854618 -5.881462 -0.000218 0.000138 -0.000286
N -3.256305 -1.852362 -0.793973 -0.000244 -0.000031 -0.000101
N -1.616787 0.940839 4.401647 0.000724 0.000021 -0.000475
N -1.570846 0.909288 -5.879625 0.000098 -0.000221 -0.000555
N -1.611848 0.938852 -0.785291 0.000236 -0.000155 -0.000172
N -3.214122 3.587310 4.388562 0.000422 -0.000503 -0.000163
N -3.205870 3.627691 -5.906578 0.000390 -0.000194 -0.000693
N -3.249059 3.610775 -0.769654 0.000164 -0.000284 -0.000183
N -0.017824 -1.872972 4.362156 0.000632 -0.000365 -0.000518
N 0.021043 -1.850706 -5.858404 0.000690 -0.000086 -0.000207
N 0.029094 -1.897871 -0.716955 0.000276 -0.000195 0.000229
N 0.019072 1.819548 1.752809 0.000744 -0.000375 0.000396
N 0.026040 1.820605 6.910348 -0.000140 0.000426 -0.000660
N -0.015846 1.791778 -3.335688 -0.000183 0.000370 -0.000669
N 3.209612 -3.691702 1.839099 -0.000614 0.000381 -0.000258
N 3.213434 -3.731746 6.957492 0.000143 0.000324 -0.000473
N 3.165668 -3.766033 -3.280133 0.000033 0.000209 -0.000486
N 1.617452 -0.924843 1.775760 -0.000195 -0.000472 0.000586
N 1.575664 -0.899962 6.958873 -0.000319 0.000833 -0.000396
N 1.574850 -0.903189 -3.361110 -0.000147 0.000046 -0.000408
N 3.158334 1.791890 1.795720 -0.000263 -0.000065 -0.000693
N 3.155334 1.797420 6.981070 0.000028 0.000055 -0.000732
N 3.117072 1.766414 -3.379736 -0.000500 -0.000271 0.000617
N 6.342502 -3.757580 1.828317 0.000082 -0.000205 -0.000204
N 6.346454 -3.763792 6.979334 0.000172 -0.000138 -0.000394
N 6.305349 -3.695087 -3.291233 -0.000241 0.000102 -0.000321
N 4.709826 -0.932029 1.773781 0.000845 0.000683 0.000064
N 4.747268 -0.901666 6.894260 -0.000393 0.000348 -0.001008
N 4.793644 -0.974179 -3.367961 -0.000184 0.000000 -0.000970
N -3.247135 1.773179 1.749456 -0.000424 -0.000153 0.000099
N -3.257575 1.768238 6.904500 -0.000492 -0.000288 -0.000768
N -3.171311 1.817388 -3.285219 0.000068 0.000148 -0.000578
N -0.057738 -3.739786 1.759169 -0.000425 -0.000074 -0.000343
N -0.072336 -3.732047 6.966907 -0.000409 -0.000054 -0.000351
N 0.021823 -3.741902 -3.299873 0.000162 -0.000035 -0.000215
N -1.621689 -0.950331 1.800915 -0.000291 0.000110 -0.000313
N -1.612218 -0.951188 6.954885 -0.000611 0.000229 -0.000249
N -1.651374 -0.930775 -3.266732 -0.000551 0.000154 0.000046
