108
Energy=-1.993031e+06 Lattice="9.586256e+00 0.000000e+00 0.000000e+00 -4.795245e+00 8.301112e+00 0.000000e+00 5.155731e-03 2.811875e-03 1.551805e+01" Stress="3.556773e-04 -7.584576e-05 9.600865e-05 -7.411619e-05 1.740897e-04 5.493429e-06 1.008154e-04 1.162194e-05 -5.959636e-05" Properties=species:S:1:pos:R:3:forces:R:3 Config_type=AlGaN_super3_34_0_14.xyz
Al 1.570746e+00 8.896365e-01 2.423489e+00 1.891388e-04 6.780478e-05 -3.928581e-05
Al 1.581227e+00 8.696188e-01 7.637952e+00 4.109284e-05 2.328332e-05 -3.219323e-05
Al 1.569303e+00 8.743573e-01 -2.748887e+00 -4.154168e-04 2.569377e-03 -3.091789e-07
Al -2.474501e-02 3.648821e+00 2.400344e+00 -7.560182e-05 -1.387127e-04 -5.979559e-05
Ga -3.289429e-02 3.654791e+00 7.633407e+00 -2.089437e-05 -1.125144e-05 1.107701e-04
Ga -4.022388e-02 3.636677e+00 -2.724833e+00 4.388009e-05 -2.850219e-04 1.293630e-04
Ga 3.169610e+00 -1.896609e+00 2.434051e+00 -4.805510e-05 1.936928e-04 1.423863e-05
Al 3.161348e+00 -1.882684e+00 7.620650e+00 -3.375249e-06 -1.701596e-05 6.933445e-05
Ga 3.146299e+00 -1.897534e+00 -2.742542e+00 2.486465e-04 -3.515012e-04 1.273364e-04
Ga -4.823208e+00 8.868672e-01 2.431969e+00 6.573589e-06 1.090258e-04 1.261910e-05
Ga -4.822834e+00 8.802747e-01 7.625677e+00 7.940756e-05 3.689569e-05 8.090142e-05
Ga -4.836178e+00 8.941448e-01 -2.736322e+00 1.117988e-04 1.487123e-04 -7.849920e-05
Ga -6.427875e+00 3.647146e+00 2.408563e+00 -2.893880e-05 -4.437812e-05 1.061317e-04
Ga -6.412524e+00 3.647608e+00 7.625779e+00 2.938715e-05 -2.431973e-05 1.313152e-04
Ga -6.412102e+00 3.637605e+00 -2.718176e+00 -1.019815e-04 -1.478937e-04 4.516098e-05
Al -3.222478e+00 -1.899978e+00 2.425816e+00 2.410893e-05 -1.972800e-05 -1.157595e-04
Al -3.225489e+00 -1.885253e+00 7.619857e+00 3.283708e-05 -8.535037e-06 5.468175e-05
Ga -3.210586e+00 -1.890015e+00 -2.716029e+00 1.964469e-05 -6.383070e-05 -3.654326e-05
Ga -1.607528e+00 8.954251e-01 2.423363e+00 9.540892e-05 7.296013e-05 -3.288952e-05
Ga -1.613376e+00 8.886059e-01 7.625794e+00 6.636207e-05 -3.843184e-05 9.560190e-05
Ga -1.599958e+00 8.870617e-01 -2.730029e+00 2.552715e-04 1.511461e-04 1.021701e-04
Al -3.202383e+00 3.655344e+00 2.423384e+00 -3.878355e-05 -9.009310e-05 3.625337e-05
Al -3.207828e+00 3.662844e+00 7.630501e+00 1.626991e-05 -9.974280e-06 2.874795e-05
Al -3.210794e+00 3.666457e+00 -2.732745e+00 5.172467e-05 -4.636555e-05 -2.047355e-05
Ga -1.188487e-02 -1.879678e+00 2.454619e+00 5.191043e-05 -1.122956e-04 6.665923e-05
Ga 1.782200e-03 -1.875935e+00 7.613239e+00 3.196470e-05 -2.721995e-05 1.384986e-04
Al -5.966743e-03 -1.880089e+00 -2.749866e+00 -2.458890e-04 -1.579794e-04 1.575362e-05
Ga -8.860647e-04 1.801013e+00 5.015289e+00 2.454265e-05 -9.661903e-05 1.164814e-04
Al -3.780951e-03 1.799568e+00 -5.315412e+00 -1.193818e-04 5.181404e-05 3.090854e-04
Al 2.259983e-03 1.820202e+00 -1.462144e-01 1.587766e-05 4.591430e-05 3.633719e-04
Ga 3.168793e+00 -3.727288e+00 5.024463e+00 -9.064600e-06 1.439266e-04 1.548088e-04
Al 3.161608e+00 -3.728571e+00 -5.331130e+00 -2.831087e-05 -8.157174e-05 4.833811e-05
Al 3.182035e+00 -3.745684e+00 -1.418911e-01 4.249494e-05 -3.256653e-06 4.714450e-04
Al 1.585181e+00 -9.446944e-01 5.037661e+00 -5.199398e-06 6.123640e-05 9.720936e-05
Al 1.581398e+00 -9.466589e-01 -5.316822e+00 -1.398914e-04 -6.492507e-05 -2.132047e-04
Ga 1.574517e+00 -9.419099e-01 -1.688694e-01 -3.160266e-06 9.493978e-05 5.286551e-04
Ga 3.152241e+00 1.791025e+00 5.029037e+00 -1.910528e-05 -3.885799e-05 6.194255e-05
Al 3.144074e+00 1.791128e+00 -5.315609e+00 8.188893e-05 -2.170736e-05 9.627497e-05
Al 3.143980e+00 1.804852e+00 -1.523983e-01 -1.207828e-04 -6.127075e-05 4.420988e-04
Ga 6.360259e+00 -3.725379e+00 5.016044e+00 4.593195e-05 9.966471e-05 9.803877e-05
Ga 6.356343e+00 -3.741326e+00 -5.316400e+00 -1.502671e-05 -3.285802e-05 1.674549e-04
Al 6.353234e+00 -3.743329e+00 -1.359652e-01 -5.243820e-05 -5.444896e-05 5.184692e-04
Ga 4.767752e+00 -9.736129e-01 5.039175e+00 -1.934997e-05 4.008345e-05 8.182862e-05
Ga 4.749224e+00 -9.720228e-01 -5.334111e+00 -5.901248e-06 3.402936e-05 4.843438e-05
Ga 4.766820e+00 -9.718544e-01 -1.409895e-01 -4.473971e-05 1.529944e-05 4.238016e-04
Ga -3.216544e+00 1.821761e+00 5.029720e+00 4.870521e-05 -5.660352e-05 -1.178927e-05
Ga -3.215145e+00 1.824233e+00 -5.308112e+00 7.197461e-05 1.467158e-06 7.896608e-05
Ga -3.213758e+00 1.825540e+00 -1.577433e-01 8.612918e-07 2.844034e-05 4.070894e-04
Ga -5.149420e-03 -3.729172e+00 5.026825e+00 6.490160e-06 6.214876e-06 1.548030e-04
Ga -4.849933e-03 -3.731627e+00 -5.303962e+00 5.552741e-05 -1.678423e-05 7.782283e-05
Ga -1.143924e-02 -3.730568e+00 -1.648252e-01 1.848813e-05 -5.283397e-05 2.608117e-04
Ga -1.621692e+00 -9.668418e-01 5.028318e+00 -7.687701e-05 2.984652e-05 9.283577e-05
Ga -1.611902e+00 -9.611799e-01 -5.314555e+00 -3.552053e-05 2.571758e-05 4.537581e-05
Ga -1.612033e+00 -9.686497e-01 -1.457947e-01 -8.792490e-05 -1.773680e-05 3.038147e-04
N 1.575422e+00 8.331055e-01 4.342122e+00 1.560262e-04 -2.488582e-05 -1.016577e-04
N 1.571457e+00 8.768355e-01 -5.948664e+00 7.392406e-05 -8.172197e-05 -3.415168e-06
N 1.571323e+00 9.353713e-01 -8.222533e-01 2.978628e-04 -2.945302e-04 3.454725e-04
N -2.721854e-02 3.649026e+00 4.329505e+00 -2.276455e-06 1.824597e-04 -6.318025e-05
N -7.270254e-02 3.621602e+00 -5.902756e+00 3.639563e-05 1.181560e-05 -1.913684e-04
N -2.751870e-02 3.648314e+00 -7.248609e-01 -6.320533e-05 5.015214e-08 -1.840249e-04
N 3.129558e+00 -1.861370e+00 4.416957e+00 7.671967e-05 -1.444299e-04 -1.737749e-04
N 3.118164e+00 -1.909271e+00 -5.962676e+00 2.125834e-06 5.213425e-05 -2.628340e-05
N 3.169076e+00 -1.939896e+00 -7.598485e-01 -4.990432e-05 2.812694e-05 -3.842454e-05
N -4.817657e+00 8.823440e-01 4.410565e+00 4.936853e-06 5.539375e-06 -4.354106e-05
N -4.860317e+00 9.100294e-01 -5.913605e+00 -8.235293e-06 2.418699e-05 -1.027097e-04
N -4.864679e+00 9.088003e-01 -7.532966e-01 7.298269e-05 7.528273e-05 -4.509387e-05
N -6.414028e+00 3.647785e+00 4.391691e+00 -8.734376e-05 -3.281220e-05 -1.567496e-04
N -6.412252e+00 3.600888e+00 -5.912696e+00 -2.467779e-05 -8.495919e-06 -1.136248e-04
N -6.458920e+00 3.625689e+00 -7.272640e-01 1.543386e-04 -5.697931e-05 2.244206e-05
N -3.219206e+00 -1.885105e+00 4.339714e+00 -7.699795e-05 -1.874277e-04 -5.538415e-05
N -3.218213e+00 -1.887221e+00 -5.990095e+00 -7.271070e-06 -1.437765e-05 -4.738867e-05
N -3.216543e+00 -1.936620e+00 -7.486255e-01 1.890109e-05 1.303544e-04 3.818005e-05
N -1.616137e+00 8.871922e-01 4.400734e+00 -1.004857e-04 -9.059526e-05 -1.166021e-04
N -1.579390e+00 9.090471e-01 -5.913491e+00 4.047698e-05 -2.705649e-05 -1.112717e-04
N -1.568524e+00 9.100771e-01 -7.454287e-01 9.837627e-05 1.516578e-05 -1.150310e-04
N -3.213033e+00 3.654143e+00 4.332551e+00 -7.223862e-06 -5.295334e-05 -9.741342e-05
N -3.181228e+00 3.674068e+00 -5.979487e+00 -1.641222e-05 -1.506126e-05 2.053472e-05
N -3.167813e+00 3.680991e+00 -8.212647e-01 -5.776473e-05 -6.767787e-05 6.299022e-05
N 2.689537e-02 -1.855584e+00 4.437866e+00 3.705826e-05 -9.397183e-05 -1.561742e-04
N 2.491322e-02 -1.860354e+00 -5.924973e+00 1.032780e-04 4.954282e-05 -2.242861e-05
N -1.704084e-02 -1.880991e+00 -8.383293e-01 4.103001e-05 -4.155924e-05 -7.664916e-05
N 2.870817e-02 1.827864e+00 1.784102e+00 -1.276403e-04 4.005864e-05 -6.002574e-04
N 3.087854e-02 1.783133e+00 7.001082e+00 -1.684681e-05 1.358277e-04 1.193002e-05
N 2.362607e-02 1.781629e+00 -3.397653e+00 -3.794151e-05 6.490783e-05 -1.470572e-04
N 3.172673e+00 -3.777680e+00 1.784393e+00 1.106394e-04 1.304016e-04 -3.085143e-04
N 3.134680e+00 -3.703665e+00 7.014722e+00 3.481973e-06 -3.359087e-05 -9.378082e-05
N 3.132460e+00 -3.755242e+00 -3.410945e+00 -6.227832e-05 1.357943e-04 -5.553437e-05
N 1.574434e+00 -9.112206e-01 1.807754e+00 7.622263e-05 -3.348468e-05 -2.431558e-04
N 1.625215e+00 -9.256725e-01 6.969790e+00 -1.086436e-04 3.251852e-05 -1.276179e-04
N 1.537006e+00 -9.303309e-01 -3.384325e+00 7.831408e-05 -1.323861e-03 -3.703313e-04
N 3.125489e+00 1.776524e+00 1.767467e+00 -6.160595e-05 -1.429733e-04 -4.239078e-04
N 3.124408e+00 1.779627e+00 7.006539e+00 -5.484895e-05 -1.802470e-05 -7.156817e-05
N 3.120401e+00 1.780882e+00 -3.398801e+00 5.336249e-05 -3.266623e-04 1.024124e-04
N 6.323694e+00 -3.705837e+00 1.787381e+00 6.163895e-05 2.351203e-04 -2.588723e-04
N 6.365403e+00 -3.683938e+00 7.002106e+00 -7.470850e-05 -4.113253e-05 -7.206117e-05
N 6.364175e+00 -3.734319e+00 -3.349898e+00 -4.634361e-05 8.377877e-05 -1.286718e-04
N 4.808819e+00 -9.853619e-01 1.832932e+00 -1.220046e-04 -2.873473e-04 -2.778571e-04
N 4.768853e+00 -1.013169e+00 7.033734e+00 -4.430984e-05 1.403898e-05 -1.255886e-04
N 4.766776e+00 -9.685405e-01 -3.357761e+00 -1.067706e-04 -5.611237e-05 -9.754486e-05
N -3.219177e+00 1.855669e+00 1.819256e+00 -7.945295e-05 -7.990228e-05 -3.270250e-04
N -3.216917e+00 1.859408e+00 7.013257e+00 -8.850386e-06 6.577647e-05 -6.442383e-05
N -3.218444e+00 1.855520e+00 -3.326738e+00 -4.004429e-05 -2.622048e-05 -5.213445e-05
N 2.434525e-02 -3.747503e+00 1.818037e+00 2.863049e-05 2.035635e-04 -2.032629e-04
N 2.406639e-02 -3.753865e+00 7.008730e+00 1.045075e-05 2.791687e-05 -1.502063e-04
N 1.888724e-02 -3.710064e+00 -3.314435e+00 4.292203e-05 1.135254e-04 -1.100647e-04
N -1.654427e+00 -9.893813e-01 1.832596e+00 -1.546108e-04 -3.955597e-05 -1.938409e-04
N -1.661153e+00 -9.859641e-01 7.010580e+00 -3.672965e-05 1.076270e-05 -1.321942e-04
N -1.582537e+00 -9.871423e-01 -3.337807e+00 -4.126692e-05 -8.271725e-05 -1.003502e-04
